

     ************************************************************************
     *************** Dalton - An Electronic Structure Program ***************
     ************************************************************************

    This is output from DALTON 2014.0
   ----------------------------------------------------------------------------
    NOTE:
     
    Dalton is an experimental code for the evaluation of molecular
    properties using (MC)SCF, DFT, CI, and CC wave functions.
    The authors accept no responsibility for the performance of
    the code or for the correctness of the results.
     
    The code (in whole or part) is provided under a licence and
    is not to be reproduced for further distribution without
    the written permission of the authors or their representatives.
     
    See the home page "http://daltonprogram.org" for further information.
     
    If results obtained with this code are published,
    the appropriate citations would be both of:
     
       K. Aidas, C. Angeli, K. L. Bak, V. Bakken, R. Bast,
       L. Boman, O. Christiansen, R. Cimiraglia, S. Coriani,
       J. Cukras, P. Dahle, E. K. Dalskov, U. Ekstroem,
       T. Enevoldsen, J. J. Eriksen, P. Ettenhuber, B. Fernandez,
       L. Ferrighi, H. Fliegl, L. Frediani, K. Hald, A. Halkier,
       C. Haettig, H. Heiberg, T. Helgaker, A. C. Hennum,
       H. Hettema, E. Hjertenaes, S. Hoest, I.-M. Hoeyvik,
       M. F. Iozzi, B. Jansik, H. J. Aa. Jensen, D. Jonsson,
       P. Joergensen, M. Kaminski, J. Kauczor, S. Kirpekar,
       T. Kjaergaard, W. Klopper, S. Knecht, R. Kobayashi, H. Koch,
       J. Kongsted, A. Krapp, K. Kristensen, A. Ligabue,
       O. B. Lutnaes, J. I. Melo, K. V. Mikkelsen, R. H. Myhre,
       C. Neiss, C. B. Nielsen, P. Norman, J. Olsen,
       J. M. H. Olsen, A. Osted, M. J. Packer, F. Pawlowski,
       T. B. Pedersen, P. F. Provasi, S. Reine, Z. Rinkevicius,
       T. A. Ruden, K. Ruud, V. Rybkin, P. Salek, C. C. M. Samson,
       A. Sanchez de Meras, T. Saue, S. P. A. Sauer,
       B. Schimmelpfennig, K. Sneskov, A. H. Steindal,
       K. O. Sylvester-Hvid, P. R. Taylor, A. M. Teale,
       E. I. Tellgren, D. P. Tew, A. J. Thorvaldsen, L. Thoegersen,
       O. Vahtras, M. A. Watson, D. J. D. Wilson, M. Ziolkowski
       and H. Agren,
       "The Dalton quantum chemistry program system",
       WIREs Comput. Mol. Sci. 2013. (doi: 10.1002/wcms.1172)
    
    and
    
       Dalton, a Molecular Electronic Structure Program,
       Release DALTON2014.0 (2014), see http://daltonprogram.org
   ----------------------------------------------------------------------------

    Authors in alphabetical order (major contribution(s) in parenthesis):

  Kestutis Aidas,           Vilnius University,           Lithuania   (QM/MM)
  Celestino Angeli,         University of Ferrara,        Italy       (NEVPT2)
  Keld L. Bak,              UNI-C,                        Denmark     (AOSOPPA, non-adiabatic coupling, magnetic properties)
  Vebjoern Bakken,          University of Oslo,           Norway      (DALTON; geometry optimizer, symmetry detection)
  Radovan Bast,             KTH Stockholm,                Sweden      (DALTON installation and execution frameworks)
  Pablo Baudin,             University of Valencia,       Spain       (Cholesky excitation energies)
  Linus Boman,              NTNU,                         Norway      (Cholesky decomposition and subsystems)
  Ove Christiansen,         Aarhus University,            Denmark     (CC module)
  Renzo Cimiraglia,         University of Ferrara,        Italy       (NEVPT2)
  Sonia Coriani,            University of Trieste,        Italy       (CC module, MCD in RESPONS)
  Janusz Cukras,            University of Trieste,        Italy       (MChD in RESPONS)
  Paal Dahle,               University of Oslo,           Norway      (Parallelization)
  Erik K. Dalskov,          UNI-C,                        Denmark     (SOPPA)
  Thomas Enevoldsen,        Univ. of Southern Denmark,    Denmark     (SOPPA)
  Janus J. Eriksen,         Aarhus University,            Denmark     (Polarizable embedding model, TDA)
  Berta Fernandez,          U. of Santiago de Compostela, Spain       (doublet spin, ESR in RESPONS)
  Lara Ferrighi,            Aarhus University,            Denmark     (PCM Cubic response)
  Heike Fliegl,             University of Oslo,           Norway      (CCSD(R12))
  Luca Frediani,            UiT The Arctic U. of Norway,  Norway      (PCM)
  Bin Gao,                  UiT The Arctic U. of Norway,  Norway      (Gen1Int library)
  Christof Haettig,         Ruhr-University Bochum,       Germany     (CC module)
  Kasper Hald,              Aarhus University,            Denmark     (CC module)
  Asger Halkier,            Aarhus University,            Denmark     (CC module)
  Erik D. Hedegaard,        Univ. of Southern Denmark,    Denmark     (Polarizable embedding model, QM/MM)
  Hanne Heiberg,            University of Oslo,           Norway      (geometry analysis, selected one-electron integrals)
  Trygve Helgaker,          University of Oslo,           Norway      (DALTON; ABACUS, ERI, DFT modules, London, and much more)
  Alf Christian Hennum,     University of Oslo,           Norway      (Parity violation)
  Hinne Hettema,            University of Auckland,       New Zealand (quadratic response in RESPONS; SIRIUS supersymmetry)
  Eirik Hjertenaes,         NTNU,                         Norway      (Cholesky decomposition)
  Maria Francesca Iozzi,    University of Oslo,           Norway      (RPA)
  Brano Jansik              Technical Univ. of Ostrava    Czech Rep.  (DFT cubic response)
  Hans Joergen Aa. Jensen,  Univ. of Southern Denmark,    Denmark     (DALTON; SIRIUS, RESPONS, ABACUS modules, London, and much more)
  Dan Jonsson,              UiT The Arctic U. of Norway,  Norway      (cubic response in RESPONS module)
  Poul Joergensen,          Aarhus University,            Denmark     (RESPONS, ABACUS, and CC modules)
  Maciej Kaminski,          University of Warsaw,         Poland      (CPPh in RESPONS)
  Joanna Kauczor,           Linkoeping University,        Sweden      (Complex polarization propagator (CPP) module)
  Sheela Kirpekar,          Univ. of Southern Denmark,    Denmark     (Mass-velocity & Darwin integrals)
  Wim Klopper,              KIT Karlsruhe,                Germany     (R12 code in CC, SIRIUS, and ABACUS modules)
  Stefan Knecht,            ETH Zurich,                   Switzerland (Parallel CI and MCSCF)
  Rika Kobayashi,           Australian National Univ.,    Australia   (DIIS in CC, London in MCSCF)
  Henrik Koch,              NTNU,                         Norway      (CC module, Cholesky decomposition)
  Jacob Kongsted,           Univ. of Southern Denmark,    Denmark     (Polarizable embedding model, QM/MM)
  Andrea Ligabue,           University of Modena,         Italy       (CTOCD, AOSOPPA)
  Nanna H. List             Univ. of Southern Denmark,    Denmark     (Polarizable embedding model)
  Ola B. Lutnaes,           University of Oslo,           Norway      (DFT Hessian)
  Juan I. Melo,             University of Buenos Aires,   Argentina   (LRESC, Relativistic Effects on NMR Shieldings)
  Kurt V. Mikkelsen,        University of Copenhagen,     Denmark     (MC-SCRF and QM/MM)
  Rolf H. Myhre,            NTNU,                         Norway      (Cholesky, subsystems and ECC2)
  Christian Neiss,          Univ. Erlangen-Nuernberg,     Germany     (CCSD(R12))
  Christian B. Nielsen,     University of Copenhagen,     Denmark     (QM/MM)
  Patrick Norman,           Linkoeping University,        Sweden      (Cubic response and complex response in RESPONS)
  Jeppe Olsen,              Aarhus University,            Denmark     (SIRIUS CI/density modules)
  Jogvan Magnus H. Olsen,   Univ. of Southern Denmark,    Denmark     (Polarizable embedding model, QM/MM)
  Anders Osted,             Copenhagen University,        Denmark     (QM/MM)
  Martin J. Packer,         University of Sheffield,      UK          (SOPPA)
  Filip Pawlowski,          Kazimierz Wielki University,  Poland      (CC3)
  Morten N. Pedersen,       Univ. of Southern Denmark,    Denmark     (Polarizable embedding model)
  Thomas B. Pedersen,       University of Oslo,           Norway      (Cholesky decomposition)
  Patricio F. Provasi,      University of Northeastern,   Argentina   (Analysis of coupling constants in localized orbitals)
  Zilvinas Rinkevicius,     KTH Stockholm,                Sweden      (open-shell DFT, ESR)
  Elias Rudberg,            KTH Stockholm,                Sweden      (DFT grid and basis info)
  Torgeir A. Ruden,         University of Oslo,           Norway      (Numerical derivatives in ABACUS)
  Kenneth Ruud,             UiT The Arctic U. of Norway,  Norway      (DALTON; ABACUS magnetic properties and much more)
  Pawel Salek,              KTH Stockholm,                Sweden      (DALTON; DFT code)
  Claire C. M. Samson       University of Karlsruhe       Germany     (Boys localization, r12 integrals in ERI)
  Alfredo Sanchez de Meras, University of Valencia,       Spain       (CC module, Cholesky decomposition)
  Trond Saue,               Paul Sabatier University,     France      (direct Fock matrix construction)
  Stephan P. A. Sauer,      University of Copenhagen,     Denmark     (SOPPA(CCSD), SOPPA prop., AOSOPPA, vibrational g-factors)
  Bernd Schimmelpfennig,    Forschungszentrum Karlsruhe,  Germany     (AMFI module)
  Kristian Sneskov,         Aarhus University,            Denmark     (Polarizable embedding model, QM/MM)
  Arnfinn H. Steindal,      UiT The Arctic U. of Norway,  Norway      (parallel QM/MM, Polarizable embedding model)
  Casper Steinmann,         Univ. of Southern Denmark,    Denmark     (QFIT, Polarizable embedding model)
  K. O. Sylvester-Hvid,     University of Copenhagen,     Denmark     (MC-SCRF)
  Peter R. Taylor,          VLSCI/Univ. of Melbourne,     Australia   (Symmetry handling ABACUS, integral transformation)
  Andrew M. Teale,          University of Nottingham,     England     (DFT-AC, DFT-D)
  David P. Tew,             University of Bristol,        England     (CCSD(R12))
  Olav Vahtras,             KTH Stockholm,                Sweden      (triplet response, spin-orbit, ESR, TDDFT, open-shell DFT)
  David J. Wilson,          La Trobe University,          Australia   (DFT Hessian and DFT magnetizabilities)
  Hans Agren,               KTH Stockholm,                Sweden      (SIRIUS module, RESPONS, MC-SCRF solvation model)
 --------------------------------------------------------------------------------

     Date and time (Linux)  : Thu Dec 11 11:25:12 2014
     Host name              : rho                                     

 * Work memory size             :    64000000 =  488.28 megabytes.

 * Directories for basis set searches:
   1) /home/vahtras/proj/L-edge_splitting/h2o
   2) /home/vahtras/dev/dalton/git/build/master/basis


Compilation information
-----------------------

 Who compiled             | vahtras
 Host                     | rho
 System                   | Linux-3.13.0-34-generic
 CMake generator          | Unix Makefiles
 Processor                | x86_64
 64-bit integers          | OFF
 MPI                      | ON
 Fortran compiler         | /usr/bin/mpif90
 Fortran compiler version | GNU Fortran (Ubuntu 4.8.2-19ubuntu1) 4.8.2
 C compiler               | /usr/bin/mpicc
 C compiler version       | gcc (Ubuntu 4.8.2-19ubuntu1) 4.8.2
 C++ compiler             | /usr/bin/mpicxx
 C++ compiler version     | unknown
 BLAS                     | /usr/lib/libblas.so
 LAPACK                   | /usr/lib/liblapack.so
 Static linking           | OFF
 Last Git revision        | c9cc0f5119cf73df15aa17b41cfb1a1f90126a9f
 Git branch               | master
 Configuration time       | 2014-12-08 13:23:44.358798

 * Sequential calculation.


   Content of the .dal input file
 ----------------------------------

**DALTON                                          
.RUN WAVE                                         
**INTEGRAL                                        
.SPIN-ORBIT                                       
**WAVE FUNCTION                                   
.HF                                               
.INTERFACE                                        
*PRINT                                            
.CMOPRI                                           
**END OF                                          


   Content of the .mol file
 ----------------------------

ATOMBASIS                                                                      
Energy calculation without symmetry                                            
Basis set specified with ATOMBASIS                                             
    2    0                                                                     
        8.    1      Basis=ano-1 5 4 3 2                                       
O         0.0 0.0 -0.2249058930                                                
        1.    2      Basis=ano-1 3 2 1                                         
H1    1.45235 0.0 0.899623                                                     
H2   -1.45235 0.0 0.899623                                                     


       *******************************************************************
       *********** Output from DALTON general input processing ***********
       *******************************************************************

 --------------------------------------------------------------------------------
   Overall default print level:    0
   Print level for DALTON.STAT:    1

    HERMIT 1- and 2-electron integral sections will be executed
    "Old" integral transformation used (limited to max 255 basis functions)
    Wave function sections will be executed (SIRIUS module)
 --------------------------------------------------------------------------------


   ****************************************************************************
   *************** Output of molecule and basis set information ***************
   ****************************************************************************


    The two title cards from your ".mol" input:
    ------------------------------------------------------------------------
 1: Energy calculation without symmetry                                     
 2: Basis set specified with ATOMBASIS                                      
    ------------------------------------------------------------------------



@ WARNING - deprecated old .mol fixed format input has been detected:
    2    0                                                                      
@ WARNING - this input format may not be supported in future releases.




  Atomic type no.    1
  --------------------
  Nuclear charge:   8.00000
  Number of symmetry independent centers:    1
  Number of basis sets to read;    2
  The basis set is "ano-1 5 4 3 2" from the basis set library.
  Basis set file used for this atomic type with Z =   8 :
     "/home/vahtras/dev/dalton/git/build/master/basis/ano-1"

  Atomic type no.    2
  --------------------
  Nuclear charge:   1.00000
  Number of symmetry independent centers:    2
  Number of basis sets to read;    2
  The basis set is "ano-1 3 2 1" from the basis set library.
  Basis set file used for this atomic type with Z =   1 :
     "/home/vahtras/dev/dalton/git/build/master/basis/ano-1"


                         SYMGRP: Point group information
                         -------------------------------

@    Point group: C1 


                                 Isotopic Masses
                                 ---------------

                           O          15.994915
                           H1          1.007825
                           H2          1.007825

                       Total mass:    18.010565 amu
                       Natural abundance:  99.730 %

 Center-of-mass coordinates (a.u.):    0.000000    0.000000   -0.099054


  Atoms and basis sets
  --------------------

  Number of atom types :    2
  Total number of atoms:    3

  label    atoms   charge   prim   cont     basis
  ----------------------------------------------------------------------
  O           1    8.0000    82    46      [14s9p4d3f|5s4p3d2f]                               
  H2          2    1.0000    35    14      [8s4p3d|3s2p1d]                                    
  ----------------------------------------------------------------------
  total:      3   10.0000   152    74
  ----------------------------------------------------------------------
  Spherical harmonic basis used.

  Threshold for neglecting AO integrals:  1.00D-12


  Cartesian Coordinates (a.u.)
  ----------------------------

  Total number of coordinates:    9
  O       :     1  x   0.0000000000    2  y   0.0000000000    3  z  -0.2249058930
  H1      :     4  x   1.4523500000    5  y   0.0000000000    6  z   0.8996230000
  H2      :     7  x  -1.4523500000    8  y   0.0000000000    9  z   0.8996230000


   Interatomic separations (in Angstrom):
   --------------------------------------

            O           H1          H2    
            ------      ------      ------
 O     :    0.000000
 H1    :    0.972000    0.000000
 H2    :    0.972000    1.537101    0.000000


  Max    interatomic separation is    1.5371 Angstrom (    2.9047 Bohr)
  between atoms    3 and    2, "H2    " and "H1    ".

  Min HX interatomic separation is    0.9720 Angstrom (    1.8368 Bohr)


  Bond distances (Angstrom):
  --------------------------

                  atom 1     atom 2       distance
                  ------     ------       --------
  bond distance:  H1         O            0.972000
  bond distance:  H2         O            0.972000


  Bond angles (degrees):
  ----------------------

                  atom 1     atom 2     atom 3         angle
                  ------     ------     ------         -----
  bond angle:     H1         O          H2           104.500




 Principal moments of inertia (u*A**2) and principal axes
 --------------------------------------------------------

   IA       0.633889          1.000000    0.000000    0.000000
   IB       1.190584          0.000000    0.000000    1.000000
   IC       1.824473          0.000000    1.000000    0.000000


 Rotational constants
 --------------------

@    The molecule is planar.

               A                   B                   C

         797267.3370         424479.9976         277000.0210 MHz
           26.593976           14.159129            9.239726 cm-1


@  Nuclear repulsion energy :    9.055004525638 Hartree


                     .---------------------------------------.
                     | Starting in Integral Section (HERMIT) |
                     `---------------------------------------'



 ***************************************************************************************
 ****************** Output from **INTEGRALS input processing (HERMIT) ******************
 ***************************************************************************************



    *************************************************************************
    ****************** Output from HERMIT input processing ******************
    *************************************************************************


 Default print level:        1

 * Nuclear model: Point charge

 Calculation of one- and two-electron Hamiltonian integrals.

 The following one-electron property integrals are calculated as requested:
          - overlap integrals
          - spatial spin-orbit integrals

 Center of mass  (bohr):      0.000000000000      0.000000000000     -0.099054390664
 Operator center (bohr):      0.000000000000      0.000000000000      0.000000000000
 Gauge origin    (bohr):      0.000000000000      0.000000000000      0.000000000000
 Dipole origin   (bohr):      0.000000000000      0.000000000000      0.000000000000


     ************************************************************************
     ************************** Output from HERINT **************************
     ************************************************************************


 Threshold for neglecting two-electron integrals:  1.00D-12
 HERMIT - Number of two-electron integrals written:     1699360 ( 44.1% )
 HERMIT - Megabytes written:                             19.463

 >>>  Time used in TWOINT     is   1.61 seconds
 >>>  Time used in TWOINT 2-el spin-orbit is   7.13 seconds

   Two-electron spin-orbit integrals
   =================================
   Spin-orbit 2-electron CPU  time      7. seconds
   Spin-orbit 2-electron wall time      7. seconds
 >>>> Total CPU  time used in HERMIT:   8.94 seconds
 >>>> Total wall time used in HERMIT:   8.94 seconds


                        .----------------------------------.
                        | End of Integral Section (HERMIT) |
                        `----------------------------------'



                   .--------------------------------------------.
                   | Starting in Wave Function Section (SIRIUS) |
                   `--------------------------------------------'


 *** Output from Huckel module :

     Using EWMO model:          T
     Using EHT  model:          F
     Number of Huckel orbitals each symmetry:    7

 EWMO - Energy Weighted Maximum Overlap - is a Huckel type method,
        which normally is better than Extended Huckel Theory.
 Reference: Linderberg and Ohrn, Propagators in Quantum Chemistry (Wiley, 1973)

 Huckel EWMO eigenvalues for symmetry :  1
          -20.684736      -1.601749      -0.777914      -0.689171      -0.616200
           -0.237251      -0.172878

 **********************************************************************
 *SIRIUS* a direct, restricted step, second order MCSCF program       *
 **********************************************************************

 
     Date and time (Linux)  : Thu Dec 11 11:25:21 2014
     Host name              : rho                                     

 Title lines from ".mol" input file:
     Energy calculation without symmetry                                     
     Basis set specified with ATOMBASIS                                      

 Print level on unit LUPRI =   2 is   0
 Print level on unit LUW4  =   2 is   5

@    Restricted, closed shell Hartree-Fock calculation.

 Initial molecular orbitals are obtained according to
 ".MOSTART EWMO  " input option

     Wave function specification
     ============================
@    Wave function type        >>> HF <<<
@    Number of closed shell electrons          10
@    Number of electrons in active shells       0
@    Total charge of the molecule               0

@    Spin multiplicity and 2 M_S                1         0
@    Total number of symmetries                 1 (point group: C1 )
@    Reference state symmetry                   1 (irrep name : A  )

     Orbital specifications
     ======================
     Abelian symmetry species          All |    1
                                           |  A  
                                       --- |  ---
@    Occupied SCF orbitals               5 |    5
     Secondary orbitals                 69 |   69
     Total number of orbitals           74 |   74
     Number of basis functions          74 |   74

     Optimization information
     ========================
@    Number of configurations                 1
@    Number of orbital rotations            345
     ------------------------------------------
@    Total number of variables              346

     Maximum number of Fock   iterations      0
     Maximum number of DIIS   iterations     60
     Maximum number of QC-SCF iterations     60
     Threshold for SCF convergence     1.00D-05


 ***********************************************
 ***** DIIS acceleration of SCF iterations *****
 ***********************************************

 C1-DIIS algorithm; max error vectors =    8

 Iter      Total energy        Error norm    Delta(E)  DIIS dim.
 -----------------------------------------------------------------------------
     (Precalculated two-electron integrals are transformed to P-supermatrix elements.
      Threshold for discarding integrals :  1.00D-12 )
 >>>  Time used in FORMSUP    is   0.16 seconds
@  1    -75.8853177437        1.78288D+00   -7.59D+01    1
      Virial theorem: -V/T =      1.996305
@      MULPOP O      -0.41; H1      0.20; H2      0.20; 
 -----------------------------------------------------------------------------
@  2    -76.0572052862        4.10775D-01   -1.72D-01    2
      Virial theorem: -V/T =      2.004223
@      MULPOP O      -0.46; H1      0.23; H2      0.23; 
 -----------------------------------------------------------------------------
@  3    -76.0639676913        1.09026D-01   -6.76D-03    3
      Virial theorem: -V/T =      2.000046
@      MULPOP O      -0.55; H1      0.28; H2      0.28; 
 -----------------------------------------------------------------------------
@  4    -76.0648277142        5.98384D-02   -8.60D-04    4
      Virial theorem: -V/T =      2.002401
@      MULPOP O      -0.54; H1      0.27; H2      0.27; 
 -----------------------------------------------------------------------------
@  5    -76.0649944809        9.85822D-03   -1.67D-04    5
      Virial theorem: -V/T =      2.001334
@      MULPOP O      -0.55; H1      0.28; H2      0.28; 
 -----------------------------------------------------------------------------
@  6    -76.0650116239        2.27799D-03   -1.71D-05    6
      Virial theorem: -V/T =      2.001352
@      MULPOP O      -0.56; H1      0.28; H2      0.28; 
 -----------------------------------------------------------------------------
@  7    -76.0650125900        3.78876D-04   -9.66D-07    7
      Virial theorem: -V/T =      2.001378
@      MULPOP O      -0.56; H1      0.28; H2      0.28; 
 -----------------------------------------------------------------------------
@  8    -76.0650126147        5.67829D-05   -2.47D-08    8
      Virial theorem: -V/T =      2.001379
@      MULPOP O      -0.56; H1      0.28; H2      0.28; 
 -----------------------------------------------------------------------------
@  9    -76.0650126152        1.03856D-05   -4.22D-10    8
      Virial theorem: -V/T =      2.001379
@      MULPOP O      -0.56; H1      0.28; H2      0.28; 
 -----------------------------------------------------------------------------
@ 10    -76.0650126152        2.06562D-06   -1.38D-11    8

@ *** DIIS converged in  10 iterations !
@     Converged SCF energy, gradient:    -76.065012615166    2.07D-06
    - total time used in SIRFCK :              0.00 seconds


 *** SCF orbital energy analysis ***

 Number of electrons :   10
 Orbital occupations :    5

 Sym       Hartree-Fock orbital energies

1 A     -20.56556475    -1.34495347    -0.70952936    -0.58187140    -0.50915803
          0.03386718     0.05625178     0.18634916     0.20119038     0.20959497
          0.23103427     0.30011843     0.34548270     0.40658303     0.42163781
          0.44447759     0.64305963     0.65869136     0.66954269     0.67823784
          0.70838447     0.74465310     0.77298365     0.84774662     1.35398125
          1.38507558     1.42277527     1.44271011     1.70769389     1.82372920
          1.82406639     2.10615324     2.11105496     2.16792850     2.19625827
          2.35893746     2.37072609     2.38435748     2.39407283     2.52051394
          2.71477813     2.73616238     3.07195507     3.14955113     3.19679065
          3.29374691     3.32177892     3.71082819     3.95364101     4.00081379
          4.32204804     4.72847639     4.92277528     5.09072786     5.11839187
          5.24544685     5.55851038     5.63492021     6.14410183     6.62711347
          6.82808663     6.96399340     7.09847810     7.29315378     8.04132978
          8.71262259     8.81029626     8.88693162     9.00293258     9.05627132
          9.18452991     9.26902893    10.49668509    11.04998846

    E(LUMO) :     0.03386718 au (symmetry 1)
  - E(HOMO) :    -0.50915803 au (symmetry 1)
  ------------------------------------------
    gap     :     0.54302521 au

 Deviation from canonical Hartree-Fock orbitals :
 Largest off-diagonal Fock matrix element is  1.70D-07

 >>> Writing SIRIFC interface file

 >>>> CPU and wall time for SCF :       0.396       0.396


                       .-----------------------------------.
                       | >>> Final results from SIRIUS <<< |
                       `-----------------------------------'


@    Spin multiplicity:           1
@    Spatial symmetry:            1 ( irrep  A   in C1  )
@    Total charge of molecule:    0

@    Final HF energy:             -76.065012615166                 
@    Nuclear repulsion:             9.055004525638
@    Electronic energy:           -85.120017140804

@    Final gradient norm:           0.000002065619

 
     Date and time (Linux)  : Thu Dec 11 11:25:21 2014
     Host name              : rho                                     

 Molecular orbitals for symmetry species 1  (A  )
 ------------------------------------------------

    Orbital         1        2        3        4        5        6        7
   1 O   :1s    -1.0003   0.0176   0.0000   0.0157   0.0000   0.0492  -0.0000
   2 O   :1s    -0.0034  -0.8468   0.0000   0.3549   0.0000   0.5803  -0.0000
   3 O   :1s    -0.0030  -0.0222   0.0000   0.0102   0.0000   0.7771   0.0000
   4 O   :1s    -0.0006  -0.0104  -0.0000  -0.0125   0.0000   0.3943   0.0000
   5 O   :1s     0.0005  -0.0030   0.0000  -0.0046  -0.0000   0.0313   0.0000
   6 O   :2px    0.0000   0.0000  -0.6611  -0.0000  -0.0000  -0.0000   1.6806
   7 O   :2py    0.0000  -0.0000  -0.0000  -0.0000   0.9506  -0.0000  -0.0000
   8 O   :2pz   -0.0019  -0.0984   0.0000  -0.8213  -0.0000   0.1315  -0.0000
   9 O   :2px    0.0000   0.0000   0.0728  -0.0000   0.0000  -0.0000   2.0264
  10 O   :2py   -0.0000   0.0000   0.0000   0.0000   0.0111   0.0000   0.0000
  11 O   :2pz   -0.0009   0.0135   0.0000   0.0040   0.0000   0.1126  -0.0000
  12 O   :2px   -0.0000  -0.0000   0.0112   0.0000  -0.0000  -0.0000   0.4676
  13 O   :2py   -0.0000   0.0000   0.0000   0.0000  -0.0235   0.0000   0.0000
  14 O   :2pz   -0.0007  -0.0018  -0.0000   0.0229  -0.0000   0.0652   0.0000
  15 O   :2px   -0.0000  -0.0000   0.0022  -0.0000  -0.0000  -0.0000   0.1047
  16 O   :2py   -0.0000   0.0000   0.0000   0.0000  -0.0063   0.0000   0.0000
  17 O   :2pz    0.0009  -0.0024   0.0000   0.0056   0.0000   0.0111   0.0000
  19 O   :3d1-  -0.0000   0.0000   0.0000   0.0000   0.0230   0.0000   0.0000
  20 O   :3d0   -0.0002  -0.0020   0.0000  -0.0232   0.0000   0.0068  -0.0000
  21 O   :3d1+   0.0000   0.0000  -0.0380  -0.0000   0.0000  -0.0000   0.3102
  22 O   :3d2+  -0.0001  -0.0095   0.0000  -0.0183   0.0000  -0.0183  -0.0000
  24 O   :3d1-  -0.0000   0.0000   0.0000   0.0000   0.0037   0.0000   0.0000
  25 O   :3d0   -0.0003   0.0011   0.0000  -0.0028   0.0000   0.0068  -0.0000
  26 O   :3d1+   0.0000  -0.0000  -0.0008  -0.0000   0.0000  -0.0000   0.3551
  27 O   :3d2+  -0.0003   0.0015   0.0000  -0.0071   0.0000  -0.0025   0.0000
  29 O   :3d1-  -0.0000   0.0000   0.0000   0.0000  -0.0013   0.0000   0.0000
  30 O   :3d0   -0.0001   0.0003   0.0000   0.0016   0.0000   0.0012  -0.0000
  31 O   :3d1+   0.0000  -0.0000   0.0003  -0.0000   0.0000  -0.0000   0.0620
  32 O   :3d2+  -0.0000   0.0005  -0.0000  -0.0002  -0.0000   0.0062   0.0000
  33 O   :4f3-   0.0000  -0.0000  -0.0000  -0.0000   0.0052  -0.0000  -0.0000
  35 O   :4f1-  -0.0000   0.0000   0.0000   0.0000   0.0021   0.0000   0.0000
  36 O   :4f0    0.0000   0.0014  -0.0000   0.0007  -0.0000   0.0054  -0.0000
  37 O   :4f1+  -0.0000   0.0000  -0.0016   0.0000   0.0000  -0.0000   0.0087
  38 O   :4f2+  -0.0001  -0.0035  -0.0000  -0.0071   0.0000  -0.0087  -0.0000
  39 O   :4f3+  -0.0000   0.0000  -0.0047   0.0000   0.0000  -0.0000   0.0131
  40 O   :4f3-  -0.0000   0.0000   0.0000   0.0000   0.0004   0.0000   0.0000
  42 O   :4f1-  -0.0000   0.0000   0.0000   0.0000   0.0002   0.0000   0.0000
  43 O   :4f0   -0.0000  -0.0001  -0.0000   0.0002   0.0000   0.0023  -0.0000
  44 O   :4f1+   0.0000   0.0000  -0.0000   0.0000   0.0000  -0.0000   0.0032
  45 O   :4f2+  -0.0001   0.0004  -0.0000  -0.0010   0.0000  -0.0034  -0.0000
  46 O   :4f3+   0.0000   0.0000   0.0000   0.0000   0.0000  -0.0000   0.0067
  47 H1  :1s     0.0022  -0.1283  -0.3743  -0.1710  -0.0000  -0.5094  -4.3608
  48 H1  :1s     0.0009   0.0529   0.0283   0.0414  -0.0000  -0.7685  -3.9843
  49 H1  :1s    -0.0005  -0.0274  -0.0162  -0.0176   0.0000  -0.2107  -0.4392
  50 H1  :2px   -0.0003   0.0181   0.0268   0.0118   0.0000  -0.0444   0.4429
  51 H1  :2py    0.0000  -0.0000  -0.0000  -0.0000   0.0444  -0.0000  -0.0000
  52 H1  :2pz    0.0001   0.0094   0.0346  -0.0300   0.0000  -0.0475   0.3854
  53 H1  :2px   -0.0003  -0.0093  -0.0002  -0.0081   0.0000  -0.0034   0.2601
  54 H1  :2py    0.0000  -0.0000  -0.0000  -0.0000   0.0062  -0.0000  -0.0000
  55 H1  :2pz   -0.0000  -0.0076  -0.0023  -0.0112  -0.0000  -0.0117   0.2312
  56 H1  :3d2-  -0.0000   0.0000   0.0000   0.0000  -0.0055   0.0000   0.0000
  57 H1  :3d1-   0.0000  -0.0000  -0.0000  -0.0000  -0.0037  -0.0000  -0.0000
  58 H1  :3d0    0.0000   0.0004  -0.0030   0.0038  -0.0000   0.0008  -0.0010
  59 H1  :3d1+  -0.0002  -0.0034  -0.0065   0.0017  -0.0000   0.0088  -0.0226
  60 H1  :3d2+  -0.0001  -0.0030  -0.0024  -0.0030  -0.0000   0.0049  -0.0135
  61 H2  :1s     0.0022  -0.1283   0.3743  -0.1710   0.0000  -0.5094   4.3608
  62 H2  :1s     0.0009   0.0529  -0.0283   0.0414   0.0000  -0.7685   3.9843
  63 H2  :1s    -0.0005  -0.0274   0.0162  -0.0176  -0.0000  -0.2107   0.4392
  64 H2  :2px    0.0003  -0.0181   0.0268  -0.0118   0.0000   0.0444   0.4429
  65 H2  :2py    0.0000  -0.0000  -0.0000  -0.0000   0.0444  -0.0000  -0.0000
  66 H2  :2pz    0.0001   0.0094  -0.0346  -0.0300  -0.0000  -0.0475  -0.3854
  67 H2  :2px    0.0003   0.0093  -0.0002   0.0081  -0.0000   0.0034   0.2601
  68 H2  :2py    0.0000  -0.0000  -0.0000  -0.0000   0.0062  -0.0000  -0.0000
  69 H2  :2pz   -0.0000  -0.0076   0.0023  -0.0112  -0.0000  -0.0117  -0.2312
  70 H2  :3d2-   0.0000  -0.0000  -0.0000  -0.0000   0.0055  -0.0000  -0.0000
  71 H2  :3d1-   0.0000  -0.0000  -0.0000  -0.0000  -0.0037  -0.0000  -0.0000
  72 H2  :3d0    0.0000   0.0004   0.0030   0.0038  -0.0000   0.0008   0.0010
  73 H2  :3d1+   0.0002   0.0034  -0.0065  -0.0017   0.0000  -0.0088  -0.0226
  74 H2  :3d2+  -0.0001  -0.0030   0.0024  -0.0030  -0.0000   0.0049   0.0135

    Orbital         8        9       10       11       12       13       14
   1 O   :1s     0.1371   0.0000  -0.1312   0.0000  -0.0000  -0.0245   0.0167
   2 O   :1s     1.1721   0.0000  -0.9623   0.0000  -0.0000  -0.3636  -0.4142
   3 O   :1s     1.6417   0.0000  -2.0506  -0.0000  -0.0000  -0.6279  -1.4077
   4 O   :1s     0.6411   0.0000  -1.0361  -0.0000  -0.0000  -0.3334  -0.9096
   5 O   :1s    -0.0023  -0.0000  -0.0955  -0.0000   0.0000  -0.0336  -0.1140
   6 O   :2px   -0.0000  -0.0000   0.0000  -4.0167   0.5840   0.0000   0.0000
   7 O   :2py   -0.0000  -0.4300   0.0000  -0.0000   0.0000  -0.0000  -0.0000
   8 O   :2pz    0.7901  -0.0000   0.1753  -0.0000   0.0000   0.8050  -1.4769
   9 O   :2px   -0.0000   0.0000   0.0000  -5.3675   0.9929   0.0000   0.0000
  10 O   :2py    0.0000  -1.3506  -0.0000   0.0000  -0.0000   0.0000   0.0000
  11 O   :2pz    1.8528   0.0000   0.1545  -0.0000   0.0000   0.8350  -1.7675
  12 O   :2px   -0.0000  -0.0000   0.0000  -1.1627   0.5804  -0.0000   0.0000
  13 O   :2py    0.0000  -0.6678  -0.0000   0.0000  -0.0000   0.0000   0.0000
  14 O   :2pz    0.7714  -0.0000   0.0956  -0.0000  -0.0000   0.0728  -0.5294
  15 O   :2px   -0.0000  -0.0000   0.0000  -0.2778   0.1143   0.0000   0.0000
  16 O   :2py    0.0000  -0.1968  -0.0000   0.0000  -0.0000   0.0000   0.0000
  17 O   :2pz    0.1960   0.0000   0.0396  -0.0000   0.0000  -0.0035  -0.1029
  19 O   :3d1-   0.0000  -0.1617  -0.0000   0.0000  -0.0000   0.0000   0.0000
  20 O   :3d0    0.3096   0.0000   0.0832  -0.0000   0.0000   0.4678  -0.2987
  21 O   :3d1+  -0.0000   0.0000   0.0000  -1.0330   0.1170   0.0000   0.0000
  22 O   :3d2+  -0.0635   0.0000  -0.0640   0.0000  -0.0000  -0.2971   0.2041
  24 O   :3d1-   0.0000  -0.2352  -0.0000   0.0000  -0.0000   0.0000   0.0000
  25 O   :3d0    0.4279   0.0000   0.1108  -0.0000   0.0000   0.5420  -0.3369
  26 O   :3d1+  -0.0000   0.0000   0.0000  -1.1272   0.2620   0.0000   0.0000
  27 O   :3d2+  -0.0496   0.0000  -0.1019  -0.0000   0.0000  -0.3468   0.2530
  29 O   :3d1-   0.0000  -0.0578  -0.0000   0.0000  -0.0000   0.0000   0.0000
  30 O   :3d0    0.0970   0.0000   0.0255  -0.0000   0.0000   0.0775  -0.0418
  31 O   :3d1+  -0.0000   0.0000   0.0000  -0.1673   0.0702  -0.0000   0.0000
  32 O   :3d2+  -0.0008  -0.0000  -0.0297  -0.0000  -0.0000  -0.0449   0.0641
  33 O   :4f3-  -0.0000  -0.0258   0.0000  -0.0000   0.0000  -0.0000  -0.0000
  35 O   :4f1-   0.0000  -0.0139  -0.0000   0.0000  -0.0000   0.0000   0.0000
  36 O   :4f0    0.0349  -0.0000   0.0020   0.0000  -0.0000   0.0800  -0.0215
  37 O   :4f1+  -0.0000   0.0000  -0.0000  -0.0628   0.0377  -0.0000  -0.0000
  38 O   :4f2+   0.0014   0.0000   0.0129   0.0000  -0.0000  -0.0360  -0.0358
  39 O   :4f3+  -0.0000   0.0000  -0.0000  -0.0600   0.0194  -0.0000  -0.0000
  40 O   :4f3-   0.0000  -0.0205  -0.0000   0.0000  -0.0000   0.0000   0.0000
  42 O   :4f1-   0.0000  -0.0107  -0.0000   0.0000  -0.0000   0.0000   0.0000
  43 O   :4f0    0.0225   0.0000   0.0031   0.0000  -0.0000   0.0536  -0.0130
  44 O   :4f1+   0.0000   0.0000   0.0000  -0.0316   0.0317  -0.0000  -0.0000
  45 O   :4f2+   0.0081   0.0000   0.0058   0.0000  -0.0000  -0.0241  -0.0271
  46 O   :4f3+  -0.0000   0.0000  -0.0000  -0.0341   0.0199  -0.0000  -0.0000
  47 H1  :1s    -0.9813  -0.0000   0.5401   8.5769  -0.3617   0.5538   1.1440
  48 H1  :1s    -0.7030  -0.0000   0.8067   5.5690  -0.0492   0.1751   0.4785
  49 H1  :1s     0.0272   0.0000   0.1754  -0.3094   0.0389  -0.0610  -0.1442
  50 H1  :2px    0.3194   0.0000  -0.0852  -1.1833  -0.7602   0.9041   0.0384
  51 H1  :2py   -0.0000   0.3837   0.0000  -0.0000   0.0000  -0.0000  -0.0000
  52 H1  :2pz   -0.4189   0.0000  -0.2388  -1.0430  -0.6657  -0.8368   1.0426
  53 H1  :2px    0.2076   0.0000  -0.0651  -0.5964  -0.5017   0.6155   0.0503
  54 H1  :2py   -0.0000   0.2651   0.0000  -0.0000   0.0000  -0.0000  -0.0000
  55 H1  :2pz   -0.2661  -0.0000  -0.1712  -0.5596  -0.4117  -0.5236   0.7158
  56 H1  :3d2-   0.0000  -0.0191  -0.0000   0.0000  -0.0000   0.0000   0.0000
  57 H1  :3d1-  -0.0000  -0.0057   0.0000  -0.0000   0.0000  -0.0000  -0.0000
  58 H1  :3d0    0.0206  -0.0000   0.0031  -0.0006   0.0221   0.0710  -0.0357
  59 H1  :3d1+   0.0305  -0.0000   0.0013   0.0714   0.0603   0.0224  -0.0473
  60 H1  :3d2+  -0.0076  -0.0000  -0.0042   0.0381   0.0408  -0.0484   0.0096
  61 H2  :1s    -0.9813   0.0000   0.5401  -8.5769   0.3617   0.5538   1.1440
  62 H2  :1s    -0.7030   0.0000   0.8067  -5.5690   0.0492   0.1751   0.4785
  63 H2  :1s     0.0272  -0.0000   0.1754   0.3094  -0.0389  -0.0610  -0.1442
  64 H2  :2px   -0.3194   0.0000   0.0852  -1.1833  -0.7602  -0.9041  -0.0384
  65 H2  :2py   -0.0000   0.3837   0.0000  -0.0000   0.0000  -0.0000  -0.0000
  66 H2  :2pz   -0.4189  -0.0000  -0.2388   1.0430   0.6657  -0.8368   1.0426
  67 H2  :2px   -0.2076  -0.0000   0.0651  -0.5964  -0.5017  -0.6155  -0.0503
  68 H2  :2py   -0.0000   0.2651   0.0000  -0.0000   0.0000  -0.0000  -0.0000
  69 H2  :2pz   -0.2661  -0.0000  -0.1712   0.5596   0.4117  -0.5236   0.7158
  70 H2  :3d2-  -0.0000   0.0191   0.0000  -0.0000   0.0000  -0.0000  -0.0000
  71 H2  :3d1-  -0.0000  -0.0057   0.0000  -0.0000   0.0000  -0.0000  -0.0000
  72 H2  :3d0    0.0206  -0.0000   0.0031   0.0006  -0.0221   0.0710  -0.0357
  73 H2  :3d1+  -0.0305   0.0000  -0.0013   0.0714   0.0603  -0.0224   0.0473
  74 H2  :3d2+  -0.0076  -0.0000  -0.0042  -0.0381  -0.0408  -0.0484   0.0096

    Orbital        15       16       17       18       19       20       21
   1 O   :1s    -0.0000   0.0000  -0.0000   0.0735   0.0000   0.0000   0.1528
   2 O   :1s     0.0000   0.0000  -0.0000   1.1203   0.0000   0.0000   0.7167
   3 O   :1s    -0.0000   0.0000  -0.0000   2.0491   0.0000   0.0000  -0.0164
   4 O   :1s     0.0000   0.0000   0.0000   0.9729   0.0000   0.0000  -0.2074
   5 O   :1s    -0.0000  -0.0000   0.0000   0.0422   0.0000  -0.0000  -0.0364
   6 O   :2px   -0.0000  -0.0000   2.7142  -0.0000   2.7444  -0.0000   0.0000
   7 O   :2py   -0.0000   1.4485  -0.0000  -0.0000   0.0000  -1.7884   0.0000
   8 O   :2pz   -0.0000  -0.0000  -0.0000   1.6330   0.0000  -0.0000   0.9875
   9 O   :2px    0.0000   0.0000   4.0399  -0.0000   2.2274   0.0000   0.0000
  10 O   :2py   -0.0000   1.5633   0.0000   0.0000  -0.0000  -1.9919  -0.0000
  11 O   :2pz    0.0000   0.0000  -0.0000   2.0687   0.0000   0.0000   0.7741
  12 O   :2px   -0.0000  -0.0000   1.1894  -0.0000   0.0612  -0.0000  -0.0000
  13 O   :2py    0.0000   0.3183   0.0000   0.0000  -0.0000  -0.4466  -0.0000
  14 O   :2pz   -0.0000  -0.0000   0.0000   0.6092   0.0000  -0.0000   0.0078
  15 O   :2px   -0.0000  -0.0000   0.2054   0.0000   0.0619  -0.0000  -0.0000
  16 O   :2py   -0.0000   0.0616   0.0000   0.0000  -0.0000  -0.1039  -0.0000
  17 O   :2pz    0.0000   0.0000  -0.0000   0.1197   0.0000   0.0000   0.0078
  18 O   :3d2-   0.2304   0.0000  -0.0000   0.0000   0.0000  -0.0000  -0.0000
  19 O   :3d1-   0.0000   0.1382   0.0000   0.0000  -0.0000  -1.0524  -0.0000
  20 O   :3d0   -0.0000   0.0000  -0.0000   0.8626  -0.0000   0.0000   1.1083
  21 O   :3d1+  -0.0000   0.0000   1.0336   0.0000  -0.3595   0.0000   0.0000
  22 O   :3d2+  -0.0000   0.0000  -0.0000   0.3857   0.0000   0.0000  -1.0757
  23 O   :3d2-   0.2004   0.0000  -0.0000   0.0000  -0.0000  -0.0000  -0.0000
  24 O   :3d1-   0.0000   0.0822   0.0000   0.0000  -0.0000  -1.4364  -0.0000
  25 O   :3d0   -0.0000   0.0000  -0.0000   1.1855   0.0000   0.0000   1.4152
  26 O   :3d1+   0.0000   0.0000   1.4632   0.0000  -0.6998   0.0000  -0.0000
  27 O   :3d2+   0.0000   0.0000  -0.0000   0.6431   0.0000   0.0000  -1.4052
  28 O   :3d2-  -0.0160   0.0000  -0.0000  -0.0000   0.0000  -0.0000  -0.0000
  29 O   :3d1-  -0.0000  -0.0382   0.0000   0.0000  -0.0000  -0.3509  -0.0000
  30 O   :3d0    0.0000   0.0000  -0.0000   0.2924   0.0000   0.0000   0.3023
  31 O   :3d1+   0.0000   0.0000   0.3538  -0.0000  -0.2203   0.0000  -0.0000
  32 O   :3d2+   0.0000  -0.0000  -0.0000   0.1973   0.0000  -0.0000  -0.3096
  33 O   :4f3-  -0.0000   0.0798  -0.0000  -0.0000   0.0000  -0.0976   0.0000
  34 O   :4f2-   0.0937  -0.0000  -0.0000   0.0000  -0.0000   0.0000  -0.0000
  35 O   :4f1-   0.0000   0.0232   0.0000   0.0000  -0.0000  -0.0588  -0.0000
  36 O   :4f0   -0.0000  -0.0000   0.0000   0.0383  -0.0000  -0.0000   0.1444
  37 O   :4f1+  -0.0000   0.0000   0.0009  -0.0000  -0.1480   0.0000  -0.0000
  38 O   :4f2+  -0.0000   0.0000   0.0000   0.0547  -0.0000   0.0000  -0.1104
  39 O   :4f3+  -0.0000   0.0000   0.0902  -0.0000   0.0566   0.0000  -0.0000
  40 O   :4f3-  -0.0000   0.0522   0.0000   0.0000  -0.0000  -0.0625  -0.0000
  41 O   :4f2-   0.0612   0.0000  -0.0000   0.0000  -0.0000  -0.0000  -0.0000
  42 O   :4f1-   0.0000   0.0148   0.0000   0.0000  -0.0000  -0.0393  -0.0000
  43 O   :4f0    0.0000   0.0000   0.0000   0.0220  -0.0000   0.0000   0.0936
  44 O   :4f1+  -0.0000   0.0000   0.0074  -0.0000  -0.1060   0.0000  -0.0000
  45 O   :4f2+  -0.0000   0.0000   0.0000   0.0450  -0.0000   0.0000  -0.0737
  46 O   :4f3+  -0.0000   0.0000   0.0663  -0.0000   0.0230   0.0000  -0.0000
  47 H1  :1s    -0.0000  -0.0000  -3.5563  -1.7543  -3.6886  -0.0000   0.3169
  48 H1  :1s     0.0000  -0.0000  -2.2366  -0.6987  -2.0568  -0.0000  -0.0320
  49 H1  :1s    -0.0000   0.0000   0.2285   0.2950   0.2655   0.0000  -0.1284
  50 H1  :2px    0.0000   0.0000  -1.3014  -0.0179   0.4555   0.0000   1.4290
  51 H1  :2py   -1.1171  -1.1785  -0.0000  -0.0000   0.0000   1.5359   0.0000
  52 H1  :2pz    0.0000   0.0000   0.5486  -1.0511   2.0507   0.0000  -0.6641
  53 H1  :2px   -0.0000   0.0000  -0.9214  -0.0186   0.2346   0.0000   0.9875
  54 H1  :2py   -0.7524  -0.8034  -0.0000  -0.0000   0.0000   1.0131   0.0000
  55 H1  :2pz   -0.0000  -0.0000   0.3554  -0.6913   1.2955  -0.0000  -0.3450
  56 H1  :3d2-   0.0658   0.0680   0.0000   0.0000  -0.0000  -0.0806  -0.0000
  57 H1  :3d1-   0.0551   0.0460  -0.0000  -0.0000   0.0000  -0.0423   0.0000
  58 H1  :3d0    0.0000  -0.0000  -0.0356   0.0301  -0.1005  -0.0000   0.0814
  59 H1  :3d1+  -0.0000  -0.0000   0.0670   0.0772  -0.1328  -0.0000  -0.0006
  60 H1  :3d2+  -0.0000  -0.0000   0.0887  -0.0013  -0.0412  -0.0000  -0.0886
  61 H2  :1s     0.0000   0.0000   3.5563  -1.7543   3.6886   0.0000   0.3169
  62 H2  :1s    -0.0000   0.0000   2.2366  -0.6987   2.0568   0.0000  -0.0320
  63 H2  :1s     0.0000  -0.0000  -0.2285   0.2950  -0.2655  -0.0000  -0.1284
  64 H2  :2px    0.0000   0.0000  -1.3014   0.0179   0.4555   0.0000  -1.4290
  65 H2  :2py    1.1171  -1.1785  -0.0000  -0.0000   0.0000   1.5359   0.0000
  66 H2  :2pz   -0.0000  -0.0000  -0.5486  -1.0511  -2.0507  -0.0000  -0.6641
  67 H2  :2px    0.0000  -0.0000  -0.9214   0.0186   0.2346  -0.0000  -0.9875
  68 H2  :2py    0.7524  -0.8034  -0.0000  -0.0000   0.0000   1.0131   0.0000
  69 H2  :2pz   -0.0000  -0.0000  -0.3554  -0.6913  -1.2955  -0.0000  -0.3450
  70 H2  :3d2-   0.0658  -0.0680  -0.0000  -0.0000   0.0000   0.0806   0.0000
  71 H2  :3d1-  -0.0551   0.0460  -0.0000  -0.0000   0.0000  -0.0423   0.0000
  72 H2  :3d0   -0.0000  -0.0000   0.0356   0.0301   0.1005  -0.0000   0.0814
  73 H2  :3d1+  -0.0000   0.0000   0.0670  -0.0772  -0.1328   0.0000   0.0006
  74 H2  :3d2+   0.0000  -0.0000  -0.0887  -0.0013   0.0412  -0.0000  -0.0886

    Orbital        22       23       24       25       26       27       28
   1 O   :1s     0.0000   0.0000  -0.6035   0.0848   0.0000   0.0000   0.4394
   2 O   :1s     0.0000   0.0000  -4.2849   0.3611   0.0000   0.0000   2.8898
   3 O   :1s    -0.0000   0.0000  -3.3670   0.1222   0.0000   0.0000   2.5001
   4 O   :1s     0.0000  -0.0000  -0.9835  -0.6742   0.0000  -0.0000   0.8859
   5 O   :1s    -0.0000   0.0000   0.0185  -0.2842  -0.0000  -0.0000   0.0937
   6 O   :2px   -0.0000  -4.9195  -0.0000   0.0000  -0.0000  -2.5954  -0.0000
   7 O   :2py   -0.0000  -0.0000  -0.0000   0.0000  -1.0421   0.0000  -0.0000
   8 O   :2pz   -0.0000   0.0000  -0.2095  -0.8149  -0.0000   0.0000   0.6554
   9 O   :2px    0.0000  -4.0324   0.0000   0.0000   0.0000  -1.8605  -0.0000
  10 O   :2py   -0.0000   0.0000   0.0000  -0.0000  -1.8439  -0.0000   0.0000
  11 O   :2pz    0.0000  -0.0000   0.3652  -1.7086   0.0000   0.0000   0.6941
  12 O   :2px   -0.0000  -0.0098   0.0000   0.0000  -0.0000   0.2029  -0.0000
  13 O   :2py   -0.0000   0.0000   0.0000  -0.0000   0.5040  -0.0000   0.0000
  14 O   :2pz   -0.0000  -0.0000   0.1905   0.2537  -0.0000  -0.0000   0.1833
  15 O   :2px   -0.0000  -0.0504   0.0000  -0.0000  -0.0000  -0.1724  -0.0000
  16 O   :2py   -0.0000   0.0000   0.0000  -0.0000   0.3698  -0.0000   0.0000
  17 O   :2pz    0.0000   0.0000   0.0358   0.2706   0.0000   0.0000   0.1181
  18 O   :3d2-   1.4118   0.0000   0.0000   0.0000  -0.0000   0.0000   0.0000
  19 O   :3d1-   0.0000   0.0000   0.0000  -0.0000  -0.5199  -0.0000   0.0000
  20 O   :3d0    0.0000   0.0000   0.6259  -0.6474   0.0000   0.0000  -0.0033
  21 O   :3d1+  -0.0000  -1.7138  -0.0000   0.0000   0.0000  -0.8003  -0.0000
  22 O   :3d2+  -0.0000   0.0000  -0.3694   0.1512   0.0000  -0.0000   0.3671
  23 O   :3d2-   1.8533   0.0000   0.0000   0.0000  -0.0000   0.0000  -0.0000
  24 O   :3d1-   0.0000   0.0000   0.0000  -0.0000  -0.5093  -0.0000   0.0000
  25 O   :3d0    0.0000   0.0000   0.8071  -0.6187   0.0000   0.0000   0.1474
  26 O   :3d1+  -0.0000  -1.8595  -0.0000   0.0000   0.0000   0.2236  -0.0000
  27 O   :3d2+  -0.0000   0.0000  -0.5948   0.1387   0.0000  -0.0000  -0.1991
  28 O   :3d2-   0.4153  -0.0000  -0.0000  -0.0000  -0.0000   0.0000  -0.0000
  29 O   :3d1-  -0.0000   0.0000   0.0000  -0.0000  -0.0419  -0.0000   0.0000
  30 O   :3d0    0.0000  -0.0000   0.1701  -0.0467   0.0000  -0.0000   0.0788
  31 O   :3d1+  -0.0000  -0.2909   0.0000   0.0000   0.0000   0.4105  -0.0000
  32 O   :3d2+  -0.0000  -0.0000  -0.1631   0.0102  -0.0000  -0.0000  -0.2510
  33 O   :4f3-  -0.0000  -0.0000  -0.0000   0.0000  -0.0504   0.0000  -0.0000
  34 O   :4f2-   0.1802   0.0000   0.0000   0.0000   0.0000   0.0000   0.0000
  35 O   :4f1-   0.0000   0.0000   0.0000  -0.0000  -0.0205  -0.0000   0.0000
  36 O   :4f0    0.0000  -0.0000   0.0187  -0.0319  -0.0000   0.0000  -0.1088
  37 O   :4f1+  -0.0000  -0.1656   0.0000   0.0000   0.0000  -0.1993   0.0000
  38 O   :4f2+  -0.0000  -0.0000   0.0514  -0.0129   0.0000   0.0000   0.1912
  39 O   :4f3+  -0.0000  -0.0416  -0.0000   0.0000   0.0000  -0.1470   0.0000
  40 O   :4f3-  -0.0000   0.0000   0.0000  -0.0000  -0.0241  -0.0000   0.0000
  41 O   :4f2-   0.1143   0.0000   0.0000   0.0000   0.0000   0.0000   0.0000
  42 O   :4f1-   0.0000   0.0000   0.0000  -0.0000  -0.0100  -0.0000   0.0000
  43 O   :4f0    0.0000  -0.0000   0.0169  -0.0143   0.0000   0.0000  -0.0592
  44 O   :4f1+  -0.0000  -0.0885   0.0000   0.0000   0.0000  -0.0857   0.0000
  45 O   :4f2+  -0.0000  -0.0000   0.0230  -0.0096   0.0000   0.0000   0.1030
  46 O   :4f3+  -0.0000  -0.0092  -0.0000   0.0000   0.0000  -0.0673   0.0000
  47 H1  :1s    -0.0000  10.2507   2.5349   0.1524  -0.0000   5.8406  -1.7397
  48 H1  :1s    -0.0000   4.4571   1.1221   0.1345  -0.0000   2.9301  -1.1598
  49 H1  :1s     0.0000  -1.4380  -0.2564   0.0018   0.0000  -1.1646   0.5016
  50 H1  :2px    0.0000  -2.4287  -0.2028  -0.1487   0.0000  -2.1785   0.5371
  51 H1  :2py   -1.8180  -0.0000  -0.0000   0.0000   0.8855   0.0000  -0.0000
  52 H1  :2pz    0.0000  -0.8593  -1.2130   0.8132   0.0000  -1.2845   0.2432
  53 H1  :2px    0.0000  -1.3479  -0.2783  -0.0965   0.0000  -1.0301   0.0417
  54 H1  :2py   -1.1678  -0.0000  -0.0000   0.0000   0.5990   0.0000  -0.0000
  55 H1  :2pz   -0.0000  -0.4074  -0.8911   0.6198  -0.0000  -0.4571   0.1386
  56 H1  :3d2-   0.0973   0.0000   0.0000  -0.0000  -0.0769  -0.0000   0.0000
  57 H1  :3d1-   0.0858  -0.0000  -0.0000   0.0000  -0.0932   0.0000  -0.0000
  58 H1  :3d0   -0.0000  -0.0472   0.0384  -0.0964  -0.0000  -0.0328  -0.0564
  59 H1  :3d1+  -0.0000   0.1316   0.0115  -0.0514  -0.0000   0.2419  -0.0220
  60 H1  :3d2+  -0.0000   0.1070  -0.0312   0.0390  -0.0000   0.1607   0.0107
  61 H2  :1s     0.0000 -10.2507   2.5349   0.1524   0.0000  -5.8406  -1.7397
  62 H2  :1s     0.0000  -4.4571   1.1221   0.1345   0.0000  -2.9301  -1.1598
  63 H2  :1s    -0.0000   1.4380  -0.2564   0.0018  -0.0000   1.1646   0.5016
  64 H2  :2px    0.0000  -2.4287   0.2028   0.1487   0.0000  -2.1785  -0.5371
  65 H2  :2py    1.8180  -0.0000  -0.0000   0.0000   0.8855   0.0000  -0.0000
  66 H2  :2pz   -0.0000   0.8593  -1.2130   0.8132  -0.0000   1.2845   0.2432
  67 H2  :2px    0.0000  -1.3479   0.2783   0.0965  -0.0000  -1.0301  -0.0417
  68 H2  :2py    1.1678  -0.0000  -0.0000   0.0000   0.5990   0.0000  -0.0000
  69 H2  :2pz   -0.0000   0.4074  -0.8911   0.6198  -0.0000   0.4571   0.1386
  70 H2  :3d2-   0.0973  -0.0000  -0.0000   0.0000   0.0769   0.0000  -0.0000
  71 H2  :3d1-  -0.0858  -0.0000  -0.0000   0.0000  -0.0932   0.0000  -0.0000
  72 H2  :3d0   -0.0000   0.0472   0.0384  -0.0964  -0.0000   0.0328  -0.0564
  73 H2  :3d1+  -0.0000   0.1316  -0.0115   0.0514   0.0000   0.2419   0.0220
  74 H2  :3d2+   0.0000  -0.1070  -0.0312   0.0390  -0.0000  -0.1607   0.0107

    Orbital        29       30       31       32       33       34       35
   1 O   :1s    -0.0000   0.2564  -0.0000   0.0000   0.0000  -0.0353   0.0000
   2 O   :1s    -0.0000   1.6741  -0.0000   0.0000   0.0000  -0.8053   0.0000
   3 O   :1s    -0.0000   1.3728  -0.0000  -0.0000   0.0000  -1.2409   0.0000
   4 O   :1s     0.0000   0.1490  -0.0000  -0.0000   0.0000  -0.4648  -0.0000
   5 O   :1s    -0.0000  -0.0868   0.0000   0.0000  -0.0000   0.0141  -0.0000
   6 O   :2px    0.0000   0.0000   0.0000  -4.5809  -0.0000   0.0000  -3.0140
   7 O   :2py   -0.0000  -0.0000  -0.0243   0.0000  -0.6218   0.0000  -0.0000
   8 O   :2pz   -0.0000  -0.2642   0.0000  -0.0000  -0.0000  -0.2877   0.0000
   9 O   :2px    0.0000   0.0000  -0.0000  -4.7181   0.0000   0.0000  -3.5346
  10 O   :2py   -0.0000   0.0000   0.0162  -0.0000  -0.7727  -0.0000   0.0000
  11 O   :2pz    0.0000  -0.4228  -0.0000  -0.0000   0.0000  -0.4767   0.0000
  12 O   :2px   -0.0000  -0.0000   0.0000   0.4804  -0.0000  -0.0000  -0.3863
  13 O   :2py    0.0000   0.0000   0.1986  -0.0000  -0.0673  -0.0000   0.0000
  14 O   :2pz   -0.0000   0.1352   0.0000  -0.0000  -0.0000  -0.2346  -0.0000
  15 O   :2px   -0.0000  -0.0000   0.0000   0.1137  -0.0000  -0.0000  -0.0564
  16 O   :2py    0.0000   0.0000   0.1203  -0.0000  -0.0212  -0.0000   0.0000
  17 O   :2pz    0.0000   0.1351  -0.0000   0.0000   0.0000  -0.0460  -0.0000
  18 O   :3d2-   0.4852   0.0000   0.0000  -0.0000   0.0000   0.0000  -0.0000
  19 O   :3d1-  -0.0000   0.0000   0.4382  -0.0000  -0.3112  -0.0000   0.0000
  20 O   :3d0   -0.0000  -0.0321  -0.0000   0.0000   0.0000   0.2643   0.0000
  21 O   :3d1+  -0.0000  -0.0000  -0.0000  -0.9710   0.0000   0.0000  -0.5178
  22 O   :3d2+  -0.0000   0.2938  -0.0000  -0.0000   0.0000  -0.1244   0.0000
  23 O   :3d2-  -0.2603   0.0000   0.0000  -0.0000   0.0000   0.0000  -0.0000
  24 O   :3d1-  -0.0000   0.0000  -0.3722  -0.0000  -0.4593  -0.0000   0.0000
  25 O   :3d0    0.0000  -0.8886  -0.0000   0.0000   0.0000   0.3070   0.0000
  26 O   :3d1+   0.0000  -0.0000  -0.0000  -0.5964   0.0000   0.0000  -1.1459
  27 O   :3d2+   0.0000   0.2270  -0.0000   0.0000   0.0000  -0.9863   0.0000
  28 O   :3d2-  -0.3343  -0.0000   0.0000   0.0000   0.0000  -0.0000   0.0000
  29 O   :3d1-  -0.0000   0.0000  -0.3712  -0.0000  -0.1037  -0.0000   0.0000
  30 O   :3d0    0.0000  -0.4404  -0.0000  -0.0000   0.0000   0.0443   0.0000
  31 O   :3d1+  -0.0000   0.0000  -0.0000   0.0322   0.0000   0.0000  -0.3323
  32 O   :3d2+   0.0000  -0.0059   0.0000  -0.0000  -0.0000  -0.4132   0.0000
  33 O   :4f3-  -0.0000  -0.0000   0.1648   0.0000  -0.3283   0.0000  -0.0000
  34 O   :4f2-   0.1922   0.0000   0.0000  -0.0000  -0.0000   0.0000  -0.0000
  35 O   :4f1-   0.0000   0.0000   0.1095  -0.0000   0.3294  -0.0000   0.0000
  36 O   :4f0   -0.0000   0.0952   0.0000  -0.0000  -0.0000   0.3277  -0.0000
  37 O   :4f1+   0.0000   0.0000  -0.0000   0.3396   0.0000   0.0000  -0.0235
  38 O   :4f2+  -0.0000   0.1599  -0.0000  -0.0000   0.0000  -0.3347   0.0000
  39 O   :4f3+  -0.0000   0.0000  -0.0000  -0.0948   0.0000  -0.0000  -0.4834
  40 O   :4f3-  -0.0000   0.0000   0.1035  -0.0000  -0.2137  -0.0000   0.0000
  41 O   :4f2-   0.1132   0.0000   0.0000  -0.0000   0.0000   0.0000  -0.0000
  42 O   :4f1-   0.0000   0.0000   0.0679  -0.0000   0.2326  -0.0000   0.0000
  43 O   :4f0    0.0000   0.0676  -0.0000   0.0000   0.0000   0.2144  -0.0000
  44 O   :4f1+   0.0000   0.0000  -0.0000   0.2334   0.0000  -0.0000  -0.0286
  45 O   :4f2+  -0.0000   0.1016  -0.0000  -0.0000   0.0000  -0.2257   0.0000
  46 O   :4f3+  -0.0000   0.0000  -0.0000  -0.0198   0.0000  -0.0000  -0.3119
  47 H1  :1s     0.0000  -0.9022   0.0000   7.9572  -0.0000   1.2411   4.3881
  48 H1  :1s     0.0000  -0.5076   0.0000   3.5827  -0.0000   0.3829   2.0974
  49 H1  :1s    -0.0000   0.2559  -0.0000  -1.3347   0.0000  -0.2752  -0.6157
  50 H1  :2px    0.0000  -0.1468  -0.0000  -1.3892   0.0000   0.5197  -0.1417
  51 H1  :2py    0.1183  -0.0000   0.2453   0.0000   0.4086   0.0000  -0.0000
  52 H1  :2pz    0.0000   0.9107  -0.0000  -1.8231   0.0000  -0.2930  -0.6690
  53 H1  :2px   -0.0000   0.0598  -0.0000  -0.6005   0.0000   0.5688   0.4896
  54 H1  :2py   -0.3558  -0.0000  -0.2445   0.0000   0.4064   0.0000  -0.0000
  55 H1  :2pz   -0.0000   0.2237   0.0000  -1.3115  -0.0000   0.1786  -0.3806
  56 H1  :3d2-   0.1417   0.0000   0.0627  -0.0000  -0.3317  -0.0000   0.0000
  57 H1  :3d1-   0.0819  -0.0000   0.1416   0.0000   0.2006   0.0000  -0.0000
  58 H1  :3d0    0.0000   0.1008   0.0000   0.2730  -0.0000   0.1872  -0.0132
  59 H1  :3d1+  -0.0000  -0.0506   0.0000   0.3593  -0.0000  -0.2752  -0.0402
  60 H1  :3d2+  -0.0000   0.0861   0.0000   0.1156  -0.0000  -0.0750  -0.2774
  61 H2  :1s     0.0000  -0.9022  -0.0000  -7.9572   0.0000   1.2411  -4.3881
  62 H2  :1s     0.0000  -0.5076  -0.0000  -3.5827   0.0000   0.3829  -2.0974
  63 H2  :1s    -0.0000   0.2559   0.0000   1.3347  -0.0000  -0.2752   0.6157
  64 H2  :2px    0.0000   0.1468  -0.0000  -1.3892   0.0000  -0.5197  -0.1417
  65 H2  :2py   -0.1183  -0.0000   0.2453   0.0000   0.4086   0.0000  -0.0000
  66 H2  :2pz   -0.0000   0.9107   0.0000   1.8231  -0.0000  -0.2930   0.6690
  67 H2  :2px    0.0000  -0.0598   0.0000  -0.6005  -0.0000  -0.5688   0.4896
  68 H2  :2py    0.3558  -0.0000  -0.2445   0.0000   0.4064   0.0000  -0.0000
  69 H2  :2pz   -0.0000   0.2237   0.0000   1.3115  -0.0000   0.1786   0.3806
  70 H2  :3d2-   0.1417  -0.0000  -0.0627   0.0000   0.3317   0.0000  -0.0000
  71 H2  :3d1-  -0.0819  -0.0000   0.1416   0.0000   0.2006   0.0000  -0.0000
  72 H2  :3d0   -0.0000   0.1008   0.0000  -0.2730  -0.0000   0.1872   0.0132
  73 H2  :3d1+   0.0000   0.0506  -0.0000   0.3593   0.0000   0.2752  -0.0402
  74 H2  :3d2+  -0.0000   0.0861   0.0000  -0.1156  -0.0000  -0.0750   0.2774

    Orbital        36       37       38       39       40       41       42
   1 O   :1s     0.2447  -0.0000  -0.0000   0.0000  -1.0977   0.7136   0.0000
   2 O   :1s     1.8238   0.0000  -0.0000   0.0000  -7.3867   4.5519   0.0000
   3 O   :1s     1.8557  -0.0000  -0.0000   0.0000  -6.7006   3.7831   0.0000
   4 O   :1s     0.3940   0.0000  -0.0000  -0.0000  -0.7306   0.3095  -0.0000
   5 O   :1s    -0.0729  -0.0000   0.0000  -0.0000   0.4275  -0.2196  -0.0000
   6 O   :2px   -0.0000   0.0000   0.0000  -4.6051  -0.0000  -0.0000  -1.0747
   7 O   :2py   -0.0000  -0.0000   1.3080   0.0000   0.0000  -0.0000  -0.0000
   8 O   :2pz    1.4208  -0.0000   0.0000  -0.0000  -1.4379   0.1882   0.0000
   9 O   :2px   -0.0000   0.0000  -0.0000  -4.2353  -0.0000  -0.0000  -0.9919
  10 O   :2py    0.0000  -0.0000   1.4582  -0.0000  -0.0000   0.0000   0.0000
  11 O   :2pz    1.6422   0.0000  -0.0000  -0.0000  -1.4955   0.2761   0.0000
  12 O   :2px   -0.0000  -0.0000   0.0000   0.9754  -0.0000  -0.0000  -0.0075
  13 O   :2py    0.0000  -0.0000   0.0861  -0.0000  -0.0000   0.0000   0.0000
  14 O   :2pz    0.0547  -0.0000   0.0000  -0.0000   0.2542  -0.3102   0.0000
  15 O   :2px    0.0000  -0.0000   0.0000   0.2536  -0.0000  -0.0000   0.0270
  16 O   :2py    0.0000  -0.0000   0.0455  -0.0000  -0.0000   0.0000   0.0000
  17 O   :2pz    0.0126   0.0000  -0.0000  -0.0000   0.0095  -0.0613  -0.0000
  18 O   :3d2-  -0.0000   0.3675   0.0000  -0.0000  -0.0000   0.0000  -0.0000
  19 O   :3d1-   0.0000  -0.0000  -0.0489  -0.0000  -0.0000   0.0000   0.0000
  20 O   :3d0    0.0276  -0.0000  -0.0000  -0.0000   0.1615  -0.2668   0.0000
  21 O   :3d1+  -0.0000   0.0000  -0.0000  -1.4114  -0.0000  -0.0000   0.0351
  22 O   :3d2+  -0.3628  -0.0000  -0.0000   0.0000  -0.4120   0.0786  -0.0000
  23 O   :3d2-  -0.0000   1.1287   0.0000  -0.0000  -0.0000   0.0000  -0.0000
  24 O   :3d1-   0.0000  -0.0000   0.7107  -0.0000  -0.0000   0.0000   0.0000
  25 O   :3d0    0.7580   0.0000  -0.0000  -0.0000   0.2113  -0.4177   0.0000
  26 O   :3d1+  -0.0000  -0.0000  -0.0000  -1.6925  -0.0000  -0.0000   0.0413
  27 O   :3d2+  -0.0738  -0.0000  -0.0000   0.0000  -0.5607   0.3310  -0.0000
  28 O   :3d2-   0.0000   0.3970   0.0000   0.0000   0.0000  -0.0000  -0.0000
  29 O   :3d1-   0.0000  -0.0000   0.3613  -0.0000  -0.0000   0.0000   0.0000
  30 O   :3d0    0.3553  -0.0000  -0.0000  -0.0000   0.0540  -0.0669   0.0000
  31 O   :3d1+  -0.0000  -0.0000  -0.0000  -0.3025  -0.0000  -0.0000   0.0517
  32 O   :3d2+   0.1091  -0.0000   0.0000  -0.0000  -0.1545   0.1427   0.0000
  33 O   :4f3-  -0.0000  -0.0000   0.4631   0.0000   0.0000  -0.0000  -0.0000
  34 O   :4f2-  -0.0000   0.6860   0.0000  -0.0000  -0.0000   0.0000  -0.0000
  35 O   :4f1-   0.0000   0.0000   0.4526  -0.0000  -0.0000   0.0000   0.0000
  36 O   :4f0    0.4465   0.0000   0.0000  -0.0000   0.0529  -0.1794   0.0000
  37 O   :4f1+   0.0000   0.0000  -0.0000  -0.6739   0.0000  -0.0000  -0.0352
  38 O   :4f2+   0.3546  -0.0000  -0.0000  -0.0000   0.1513   0.2860   0.0000
  39 O   :4f3+   0.0000   0.0000  -0.0000   0.1096  -0.0000  -0.0000   0.3586
  40 O   :4f3-   0.0000  -0.0000   0.2796  -0.0000  -0.0000   0.0000   0.0000
  41 O   :4f2-  -0.0000   0.4154   0.0000  -0.0000  -0.0000   0.0000  -0.0000
  42 O   :4f1-   0.0000   0.0000   0.2982  -0.0000  -0.0000   0.0000   0.0000
  43 O   :4f0    0.2962   0.0000  -0.0000  -0.0000   0.0330  -0.0841  -0.0000
  44 O   :4f1+   0.0000   0.0000  -0.0000  -0.3780   0.0000   0.0000  -0.0462
  45 O   :4f2+   0.2333   0.0000  -0.0000  -0.0000   0.1194   0.1566   0.0000
  46 O   :4f3+   0.0000   0.0000  -0.0000   0.0892  -0.0000  -0.0000   0.2333
  47 H1  :1s    -1.4109  -0.0000   0.0000   9.6116   4.5426  -2.7240   1.5400
  48 H1  :1s    -0.6251  -0.0000   0.0000   3.5226   2.1895  -1.1249   0.7669
  49 H1  :1s     0.3133   0.0000  -0.0000  -1.8927  -1.0675   0.5191  -0.4583
  50 H1  :2px    0.5442   0.0000  -0.0000  -2.5226  -0.7403   0.4043  -0.6106
  51 H1  :2py   -0.0000  -1.1357  -0.8376   0.0000   0.0000  -0.0000  -0.0000
  52 H1  :2pz   -0.4692   0.0000  -0.0000  -0.9251  -1.1175   0.7880  -0.3553
  53 H1  :2px    0.2943   0.0000  -0.0000  -1.3198  -0.7824   0.2314   0.1378
  54 H1  :2py   -0.0000  -0.8528  -0.7366   0.0000   0.0000  -0.0000  -0.0000
  55 H1  :2pz   -0.4101   0.0000   0.0000  -0.1206  -0.6190   0.8466  -0.2436
  56 H1  :3d2-   0.0000   0.2680   0.2483  -0.0000  -0.0000   0.0000   0.0000
  57 H1  :3d1-  -0.0000   0.3989   0.2548   0.0000   0.0000  -0.0000  -0.0000
  58 H1  :3d0    0.2818  -0.0000   0.0000  -0.2339  -0.0209  -0.3140   0.3483
  59 H1  :3d1+   0.0043  -0.0000   0.0000   0.1180  -0.0755  -0.4671  -0.4069
  60 H1  :3d2+   0.0146  -0.0000   0.0000   0.2588   0.3849   0.2413  -0.0168
  61 H2  :1s    -1.4109   0.0000  -0.0000  -9.6116   4.5426  -2.7240  -1.5400
  62 H2  :1s    -0.6251   0.0000  -0.0000  -3.5226   2.1895  -1.1249  -0.7669
  63 H2  :1s     0.3133  -0.0000   0.0000   1.8927  -1.0675   0.5191   0.4583
  64 H2  :2px   -0.5442   0.0000  -0.0000  -2.5226   0.7403  -0.4043  -0.6106
  65 H2  :2py   -0.0000   1.1357  -0.8376   0.0000   0.0000  -0.0000  -0.0000
  66 H2  :2pz   -0.4692  -0.0000   0.0000   0.9251  -1.1175   0.7880   0.3553
  67 H2  :2px   -0.2943   0.0000   0.0000  -1.3198   0.7824  -0.2314   0.1378
  68 H2  :2py   -0.0000   0.8528  -0.7366   0.0000   0.0000  -0.0000  -0.0000
  69 H2  :2pz   -0.4101  -0.0000   0.0000   0.1206  -0.6190   0.8466   0.2436
  70 H2  :3d2-  -0.0000   0.2680  -0.2483   0.0000   0.0000  -0.0000  -0.0000
  71 H2  :3d1-  -0.0000  -0.3989   0.2548   0.0000   0.0000  -0.0000  -0.0000
  72 H2  :3d0    0.2818   0.0000   0.0000   0.2339  -0.0209  -0.3140  -0.3483
  73 H2  :3d1+  -0.0043  -0.0000  -0.0000   0.1180   0.0755   0.4671  -0.4069
  74 H2  :3d2+   0.0146  -0.0000   0.0000  -0.2588   0.3849   0.2413   0.0168

    Orbital        43       44       45       46       47       48       49
   1 O   :1s    -0.0000  -0.0000   0.5648   0.0000  -0.0000   0.0402   0.0000
   2 O   :1s     0.0000  -0.0000   4.5061   0.0000  -0.0000   0.5375   0.0000
   3 O   :1s    -0.0000  -0.0000   4.5161  -0.0000   0.0000   0.7231   0.0000
   4 O   :1s     0.0000  -0.0000   0.4623  -0.0000  -0.0000   0.1261   0.0000
   5 O   :1s    -0.0000   0.0000  -0.3397  -0.0000   0.0000  -0.0628  -0.0000
   6 O   :2px    0.0000   0.0000  -0.0000  -0.7387   0.0000  -0.0000  -0.0000
   7 O   :2py   -0.0000  -0.3719  -0.0000   0.0000  -0.0000  -0.0000   0.1462
   8 O   :2pz   -0.0000   0.0000   1.2728   0.0000   0.0000   0.0867  -0.0000
   9 O   :2px    0.0000  -0.0000  -0.0000  -0.7785   0.0000  -0.0000   0.0000
  10 O   :2py   -0.0000  -0.1703   0.0000  -0.0000  -0.0000   0.0000  -0.0280
  11 O   :2pz    0.0000  -0.0000   1.5488   0.0000  -0.0000   0.4578   0.0000
  12 O   :2px   -0.0000   0.0000  -0.0000   0.2973   0.0000   0.0000  -0.0000
  13 O   :2py   -0.0000  -0.1280   0.0000  -0.0000  -0.0000   0.0000  -0.0818
  14 O   :2pz   -0.0000   0.0000  -0.1250  -0.0000   0.0000   0.0270  -0.0000
  15 O   :2px   -0.0000   0.0000   0.0000   0.1488   0.0000   0.0000  -0.0000
  16 O   :2py   -0.0000  -0.0804   0.0000  -0.0000  -0.0000   0.0000  -0.0732
  17 O   :2pz    0.0000  -0.0000  -0.1108  -0.0000  -0.0000   0.0063   0.0000
  18 O   :3d2-  -0.3812  -0.0000   0.0000  -0.0000  -0.0163  -0.0000   0.0000
  19 O   :3d1-  -0.0000   0.1918   0.0000  -0.0000  -0.0000   0.0000  -0.4236
  20 O   :3d0   -0.0000  -0.0000  -0.1365   0.0000   0.0000   0.2561   0.0000
  21 O   :3d1+   0.0000  -0.0000  -0.0000  -0.3615   0.0000  -0.0000   0.0000
  22 O   :3d2+  -0.0000  -0.0000  -0.0260  -0.0000   0.0000   0.4465   0.0000
  23 O   :3d2-  -0.2212  -0.0000   0.0000  -0.0000  -0.0645  -0.0000   0.0000
  24 O   :3d1-  -0.0000   0.0728   0.0000  -0.0000  -0.0000   0.0000  -0.3025
  25 O   :3d0   -0.0000  -0.0000   0.0376   0.0000  -0.0000   0.3667   0.0000
  26 O   :3d1+   0.0000  -0.0000  -0.0000  -0.1902  -0.0000  -0.0000   0.0000
  27 O   :3d2+   0.0000  -0.0000   0.0840   0.0000  -0.0000   0.1477   0.0000
  28 O   :3d2-   0.0079  -0.0000  -0.0000  -0.0000  -0.0771   0.0000   0.0000
  29 O   :3d1-  -0.0000   0.0027   0.0000  -0.0000  -0.0000   0.0000  -0.0315
  30 O   :3d0   -0.0000  -0.0000   0.0718   0.0000  -0.0000   0.1424   0.0000
  31 O   :3d1+  -0.0000  -0.0000  -0.0000   0.0691   0.0000   0.0000   0.0000
  32 O   :3d2+  -0.0000   0.0000   0.0082  -0.0000  -0.0000  -0.1121  -0.0000
  33 O   :4f3-  -0.0000   0.6048  -0.0000   0.0000  -0.0000  -0.0000   0.7599
  34 O   :4f2-   0.0794  -0.0000   0.0000  -0.0000  -0.7967  -0.0000   0.0000
  35 O   :4f1-   0.0000   0.3369   0.0000  -0.0000   0.0000   0.0000  -0.8590
  36 O   :4f0   -0.0000   0.0000  -0.0753  -0.0000  -0.0000   0.8942  -0.0000
  37 O   :4f1+   0.0000  -0.0000  -0.0000   0.5564   0.0000   0.0000   0.0000
  38 O   :4f2+  -0.0000  -0.0000  -0.6225  -0.0000   0.0000  -0.0976   0.0000
  39 O   :4f3+   0.0000  -0.0000  -0.0000   0.5504   0.0000   0.0000   0.0000
  40 O   :4f3-  -0.0000   0.3901   0.0000  -0.0000  -0.0000   0.0000   0.4292
  41 O   :4f2-   0.0419  -0.0000   0.0000  -0.0000  -0.4945  -0.0000   0.0000
  42 O   :4f1-   0.0000   0.2125   0.0000  -0.0000   0.0000   0.0000  -0.4760
  43 O   :4f0    0.0000  -0.0000  -0.0581  -0.0000  -0.0000   0.5037   0.0000
  44 O   :4f1+  -0.0000  -0.0000   0.0000   0.3386   0.0000   0.0000   0.0000
  45 O   :4f2+  -0.0000  -0.0000  -0.3513  -0.0000   0.0000  -0.0402   0.0000
  46 O   :4f3+   0.0000  -0.0000   0.0000   0.3160   0.0000   0.0000   0.0000
  47 H1  :1s    -0.0000   0.0000  -3.0791   1.5979  -0.0000  -0.5005  -0.0000
  48 H1  :1s    -0.0000   0.0000  -1.4594   0.6190  -0.0000  -0.2462  -0.0000
  49 H1  :1s     0.0000  -0.0000   0.8157  -0.5484   0.0000   0.1533   0.0000
  50 H1  :2px    0.0000  -0.0000   0.7434  -0.4765  -0.0000   0.1600   0.0000
  51 H1  :2py    0.0173  -0.2520  -0.0000   0.0000   0.2630  -0.0000  -0.1257
  52 H1  :2pz    0.0000  -0.0000   0.4573  -0.4090  -0.0000  -0.1133   0.0000
  53 H1  :2px    0.0000  -0.0000   0.1780  -0.3228   0.0000  -0.1032   0.0000
  54 H1  :2py   -0.0814   0.3851  -0.0000   0.0000  -0.3174  -0.0000   0.1037
  55 H1  :2pz    0.0000   0.0000   0.1632   0.1231   0.0000  -0.0090  -0.0000
  56 H1  :3d2-   0.6897  -0.3385   0.0000  -0.0000   0.2401   0.0000  -0.4989
  57 H1  :3d1-  -0.5021  -0.3562  -0.0000   0.0000   0.4739  -0.0000   0.7974
  58 H1  :3d0   -0.0000   0.0000   0.1280  -0.4975  -0.0000  -0.6921  -0.0000
  59 H1  :3d1+  -0.0000   0.0000   0.1687  -0.0745   0.0000   0.3702  -0.0000
  60 H1  :3d2+  -0.0000   0.0000   0.5888  -0.3967   0.0000  -0.1725  -0.0000
  61 H2  :1s     0.0000  -0.0000  -3.0791  -1.5979   0.0000  -0.5005   0.0000
  62 H2  :1s     0.0000  -0.0000  -1.4594  -0.6190   0.0000  -0.2462   0.0000
  63 H2  :1s    -0.0000   0.0000   0.8157   0.5484  -0.0000   0.1533  -0.0000
  64 H2  :2px    0.0000  -0.0000  -0.7434  -0.4765  -0.0000  -0.1600   0.0000
  65 H2  :2py   -0.0173  -0.2520  -0.0000   0.0000  -0.2630  -0.0000  -0.1257
  66 H2  :2pz   -0.0000   0.0000   0.4573   0.4090   0.0000  -0.1133  -0.0000
  67 H2  :2px    0.0000   0.0000  -0.1780  -0.3228   0.0000   0.1032  -0.0000
  68 H2  :2py    0.0814   0.3851  -0.0000   0.0000   0.3174  -0.0000   0.1037
  69 H2  :2pz   -0.0000   0.0000   0.1632  -0.1231  -0.0000  -0.0090  -0.0000
  70 H2  :3d2-   0.6897   0.3385  -0.0000   0.0000   0.2401  -0.0000   0.4989
  71 H2  :3d1-   0.5021  -0.3562  -0.0000   0.0000  -0.4739  -0.0000   0.7974
  72 H2  :3d0    0.0000   0.0000   0.1280   0.4975   0.0000  -0.6921  -0.0000
  73 H2  :3d1+  -0.0000  -0.0000  -0.1687  -0.0745   0.0000  -0.3702   0.0000
  74 H2  :3d2+  -0.0000   0.0000   0.5888   0.3967  -0.0000  -0.1725  -0.0000

    Orbital        50       51       52       53       54       55       56
   1 O   :1s     0.0000  -0.0000  -0.0000  -0.3646  -0.0000  -0.7345   0.0000
   2 O   :1s    -0.0000  -0.0000  -0.0000  -0.5410  -0.0000  -4.4706   0.0000
   3 O   :1s    -0.0000  -0.0000  -0.0000   1.4779  -0.0000  -3.2645  -0.0000
   4 O   :1s    -0.0000  -0.0000  -0.0000  -0.1742  -0.0000  -0.3608   0.0000
   5 O   :1s    -0.0000   0.0000   0.0000  -0.1050   0.0000  -0.2563  -0.0000
   6 O   :2px   -0.2020  -2.1822   0.0000  -0.0000   4.9736  -0.0000   0.0000
   7 O   :2py   -0.0000  -0.0000  -2.8197   0.0000   0.0000  -0.0000  -0.0000
   8 O   :2pz   -0.0000  -0.0000   0.0000   1.6539  -0.0000  -2.5236  -0.0000
   9 O   :2px   -0.5905  -0.3676  -0.0000  -0.0000   3.7282  -0.0000   0.0000
  10 O   :2py    0.0000   0.0000  -2.0061  -0.0000  -0.0000   0.0000  -0.0000
  11 O   :2pz   -0.0000  -0.0000  -0.0000   2.1317  -0.0000  -1.8115   0.0000
  12 O   :2px   -0.4366   0.1442   0.0000  -0.0000  -1.0444   0.0000   0.0000
  13 O   :2py    0.0000   0.0000   0.2673  -0.0000  -0.0000   0.0000  -0.0000
  14 O   :2pz   -0.0000   0.0000   0.0000  -0.2876   0.0000  -0.0159  -0.0000
  15 O   :2px   -0.0518  -0.3572   0.0000   0.0000  -0.1947   0.0000  -0.0000
  16 O   :2py    0.0000   0.0000   0.6608  -0.0000  -0.0000   0.0000  -0.0000
  17 O   :2pz   -0.0000   0.0000  -0.0000  -0.5198  -0.0000   0.5645   0.0000
  18 O   :3d2-   0.0000  -0.0000  -0.0000   0.0000   0.0000  -0.0000   2.3398
  19 O   :3d1-   0.0000   0.0000  -1.5805  -0.0000  -0.0000   0.0000  -0.0000
  20 O   :3d0   -0.0000   0.0000  -0.0000   0.8499   0.0000  -1.3446  -0.0000
  21 O   :3d1+   0.0406  -0.0267  -0.0000  -0.0000   0.0886  -0.0000   0.0000
  22 O   :3d2+  -0.0000  -0.0000  -0.0000   0.5633  -0.0000   0.5382  -0.0000
  23 O   :3d2-   0.0000  -0.0000  -0.0000   0.0000   0.0000  -0.0000   0.7790
  24 O   :3d1-   0.0000   0.0000  -0.8291  -0.0000  -0.0000   0.0000  -0.0000
  25 O   :3d0   -0.0000   0.0000  -0.0000   0.5288   0.0000  -0.7382  -0.0000
  26 O   :3d1+  -0.2207   0.3113  -0.0000  -0.0000   0.2672  -0.0000   0.0000
  27 O   :3d2+  -0.0000  -0.0000  -0.0000   0.3497  -0.0000   0.1309   0.0000
  28 O   :3d2-  -0.0000   0.0000   0.0000  -0.0000   0.0000   0.0000  -0.2038
  29 O   :3d1-   0.0000   0.0000   0.1350  -0.0000  -0.0000   0.0000  -0.0000
  30 O   :3d0   -0.0000  -0.0000  -0.0000  -0.0043   0.0000   0.0456  -0.0000
  31 O   :3d1+  -0.1726   0.4079  -0.0000  -0.0000   0.0098  -0.0000  -0.0000
  32 O   :3d2+  -0.0000  -0.0000   0.0000   0.2558   0.0000   0.0802  -0.0000
  33 O   :4f3-  -0.0000  -0.0000  -0.6935   0.0000   0.0000  -0.0000  -0.0000
  34 O   :4f2-   0.0000  -0.0000  -0.0000   0.0000   0.0000  -0.0000   1.1249
  35 O   :4f1-   0.0000   0.0000  -0.4057  -0.0000  -0.0000   0.0000   0.0000
  36 O   :4f0    0.0000  -0.0000   0.0000  -0.0457   0.0000  -0.5292  -0.0000
  37 O   :4f1+  -0.2945   0.0973  -0.0000   0.0000  -1.3347   0.0000   0.0000
  38 O   :4f2+   0.0000  -0.0000  -0.0000   0.6429   0.0000   0.1297  -0.0000
  39 O   :4f3+   0.5088   0.2879  -0.0000  -0.0000   0.9091  -0.0000   0.0000
  40 O   :4f3-   0.0000   0.0000  -0.4018  -0.0000  -0.0000   0.0000  -0.0000
  41 O   :4f2-   0.0000  -0.0000  -0.0000   0.0000   0.0000  -0.0000   0.6806
  42 O   :4f1-   0.0000   0.0000  -0.2163  -0.0000  -0.0000   0.0000   0.0000
  43 O   :4f0    0.0000   0.0000  -0.0000  -0.0611   0.0000  -0.2726  -0.0000
  44 O   :4f1+  -0.1594   0.0936  -0.0000   0.0000  -0.7791   0.0000   0.0000
  45 O   :4f2+   0.0000  -0.0000  -0.0000   0.4028  -0.0000   0.0785   0.0000
  46 O   :4f3+   0.2881   0.2010  -0.0000   0.0000   0.5173   0.0000   0.0000
  47 H1  :1s    -0.9464   3.9573   0.0000  -1.4715  -5.0553   2.5696  -0.0000
  48 H1  :1s    -0.0619   1.8787   0.0000   0.2773  -1.6789   1.1221  -0.0000
  49 H1  :1s     0.3235  -0.6921  -0.0000  -0.0866   0.9052  -0.5415   0.0000
  50 H1  :2px    1.0328  -2.3102  -0.0000  -0.3022  -0.3095  -1.6165   0.0000
  51 H1  :2py   -0.0000  -0.0000   2.1529   0.0000   0.0000  -0.0000  -2.3014
  52 H1  :2pz    0.0233  -1.5168  -0.0000  -1.2509   2.9159   0.4719   0.0000
  53 H1  :2px    0.6245  -0.6078  -0.0000  -0.2325   0.3482  -0.2944   0.0000
  54 H1  :2py   -0.0000  -0.0000   0.3809   0.0000   0.0000  -0.0000  -0.0768
  55 H1  :2pz   -0.3363  -0.3909   0.0000  -0.3979   0.3212   0.0482   0.0000
  56 H1  :3d2-   0.0000   0.0000  -0.8558  -0.0000  -0.0000   0.0000   0.9744
  57 H1  :3d1-  -0.0000  -0.0000  -0.4892   0.0000   0.0000  -0.0000   0.7721
  58 H1  :3d0    0.1984  -0.0184   0.0000   0.2637  -1.2426  -0.3374  -0.0000
  59 H1  :3d1+   0.4593   0.9622   0.0000   0.8522  -0.1833   0.0618  -0.0000
  60 H1  :3d2+  -0.8029   0.6040   0.0000   0.2975   0.3825   0.5280   0.0000
  61 H2  :1s     0.9464  -3.9573  -0.0000  -1.4715   5.0553   2.5696   0.0000
  62 H2  :1s     0.0619  -1.8787  -0.0000   0.2773   1.6789   1.1221   0.0000
  63 H2  :1s    -0.3235   0.6921   0.0000  -0.0866  -0.9052  -0.5415  -0.0000
  64 H2  :2px    1.0328  -2.3102  -0.0000   0.3022  -0.3095   1.6165   0.0000
  65 H2  :2py   -0.0000  -0.0000   2.1529   0.0000   0.0000  -0.0000   2.3014
  66 H2  :2pz   -0.0233   1.5168   0.0000  -1.2509  -2.9159   0.4719   0.0000
  67 H2  :2px    0.6245  -0.6078   0.0000   0.2325   0.3482   0.2944   0.0000
  68 H2  :2py   -0.0000  -0.0000   0.3809   0.0000   0.0000  -0.0000   0.0768
  69 H2  :2pz    0.3363   0.3909   0.0000  -0.3979  -0.3212   0.0482  -0.0000
  70 H2  :3d2-  -0.0000  -0.0000   0.8558   0.0000   0.0000  -0.0000   0.9744
  71 H2  :3d1-  -0.0000  -0.0000  -0.4892   0.0000   0.0000  -0.0000  -0.7721
  72 H2  :3d0   -0.1984   0.0184   0.0000   0.2637   1.2426  -0.3374  -0.0000
  73 H2  :3d1+   0.4593   0.9622  -0.0000  -0.8522  -0.1833  -0.0618   0.0000
  74 H2  :3d2+   0.8029  -0.6040   0.0000   0.2975  -0.3825   0.5280  -0.0000

    Orbital        57       58       59       60       61       62       63
   1 O   :1s     0.0000  -0.0581  -0.0000  -1.9297   0.0000   0.0000  -1.9192
   2 O   :1s     0.0000  -0.4751  -0.0000 -12.1726   0.0000   0.0000 -12.0910
   3 O   :1s     0.0000  -0.4115  -0.0000  -7.8802   0.0000   0.0000  -8.5755
   4 O   :1s     0.0000  -0.0898  -0.0000   0.0985   0.0000   0.0000  -0.8101
   5 O   :1s    -0.0000   0.2576   0.0000   0.1930   0.0000  -0.0000   0.8124
   6 O   :2px   -0.0000  -0.0000   9.4247  -0.0000   4.1519  -0.0000   0.0000
   7 O   :2py   -1.7701   0.0000   0.0000  -0.0000  -0.0000   0.6964   0.0000
   8 O   :2pz   -0.0000  -1.7718  -0.0000  -3.8634   0.0000  -0.0000  -3.1154
   9 O   :2px    0.0000  -0.0000   6.7324  -0.0000   4.1036   0.0000   0.0000
  10 O   :2py   -0.9609  -0.0000  -0.0000   0.0000   0.0000   0.2306  -0.0000
  11 O   :2pz    0.0000  -1.1080  -0.0000  -2.1190   0.0000   0.0000  -2.2384
  12 O   :2px   -0.0000  -0.0000  -1.6554   0.0000   0.0068  -0.0000  -0.0000
  13 O   :2py    0.9389  -0.0000  -0.0000   0.0000   0.0000  -0.4188  -0.0000
  14 O   :2pz   -0.0000   0.7572   0.0000   1.1085   0.0000  -0.0000   0.2884
  15 O   :2px   -0.0000   0.0000  -0.0920   0.0000  -1.2248  -0.0000  -0.0000
  16 O   :2py   -0.6293  -0.0000  -0.0000   0.0000   0.0000   0.0811  -0.0000
  17 O   :2pz    0.0000  -0.3680   0.0000  -0.4146   0.0000   0.0000   0.1073
  19 O   :3d1-  -1.0880  -0.0000  -0.0000   0.0000   0.0000   0.2519  -0.0000
  20 O   :3d0    0.0000  -1.7854   0.0000   0.1888   0.0000   0.0000   0.2122
  21 O   :3d1+   0.0000  -0.0000   4.0790  -0.0000   1.0459   0.0000  -0.0000
  22 O   :3d2+   0.0000   0.9010  -0.0000  -1.6649   0.0000   0.0000  -1.2900
  24 O   :3d1-  -0.1881  -0.0000  -0.0000   0.0000   0.0000   0.6036  -0.0000
  25 O   :3d0    0.0000  -0.4017   0.0000   0.1534   0.0000   0.0000   0.4138
  26 O   :3d1+   0.0000   0.0000   1.7295  -0.0000   1.0477   0.0000   0.0000
  27 O   :3d2+   0.0000   0.1923  -0.0000  -0.8079   0.0000   0.0000  -0.2843
  29 O   :3d1-   0.0887  -0.0000  -0.0000   0.0000   0.0000  -0.9835  -0.0000
  30 O   :3d0    0.0000   0.0428  -0.0000   0.3618   0.0000   0.0000  -0.4670
  31 O   :3d1+   0.0000  -0.0000  -0.2829   0.0000   0.5591   0.0000   0.0000
  32 O   :3d2+  -0.0000  -0.0609  -0.0000   0.3940   0.0000  -0.0000  -0.4313
  33 O   :4f3-  -0.4962   0.0000   0.0000  -0.0000  -0.0000   0.1948   0.0000
  35 O   :4f1-  -0.1396  -0.0000  -0.0000   0.0000   0.0000   0.2098  -0.0000
  36 O   :4f0   -0.0000  -0.4980   0.0000   0.4161  -0.0000  -0.0000   0.3156
  37 O   :4f1+   0.0000  -0.0000   0.8025   0.0000  -0.1052   0.0000  -0.0000
  38 O   :4f2+   0.0000   0.1015  -0.0000  -0.6033  -0.0000   0.0000  -0.1494
  39 O   :4f3+   0.0000  -0.0000   0.3059  -0.0000   0.2287   0.0000  -0.0000
  40 O   :4f3-  -0.3473  -0.0000  -0.0000   0.0000   0.0000   0.2143  -0.0000
  42 O   :4f1-  -0.1017  -0.0000  -0.0000   0.0000   0.0000   0.1034  -0.0000
  43 O   :4f0    0.0000  -0.2846   0.0000   0.2831  -0.0000   0.0000   0.1959
  44 O   :4f1+   0.0000   0.0000   0.5121  -0.0000  -0.1455   0.0000  -0.0000
  45 O   :4f2+   0.0000   0.0413  -0.0000  -0.6166  -0.0000   0.0000  -0.2609
  46 O   :4f3+   0.0000   0.0000   0.2878  -0.0000  -0.0444   0.0000  -0.0000
  47 H1  :1s    -0.0000   0.3263 -15.2853   7.8297  -7.4519  -0.0000   7.4133
  48 H1  :1s    -0.0000   0.1175  -4.0718   1.4631  -2.8513  -0.0000   2.3743
  49 H1  :1s     0.0000  -0.0910   2.0383  -0.7899   1.7745   0.0000  -1.3078
  50 H1  :2px    0.0000  -0.9967   4.2603  -2.0114   1.2182   0.0000  -1.7945
  51 H1  :2py    1.2581   0.0000   0.0000  -0.0000  -0.0000  -0.5902   0.0000
  52 H1  :2pz    0.0000   1.1160   2.6843  -2.1220   1.2452   0.0000  -1.9584
  53 H1  :2px    0.0000  -0.0214   0.7715  -0.0804   0.7946   0.0000  -0.4980
  54 H1  :2py   -0.0693   0.0000   0.0000  -0.0000  -0.0000   0.2147   0.0000
  55 H1  :2pz   -0.0000  -0.0209   0.5752  -0.2865   0.5238  -0.0000  -0.3908
  56 H1  :3d2-  -0.6588  -0.0000  -0.0000   0.0000   0.0000   0.3330  -0.0000
  57 H1  :3d1-  -0.5576   0.0000   0.0000  -0.0000  -0.0000   0.1072   0.0000
  58 H1  :3d0   -0.0000  -0.7306   0.1209   0.0277  -0.0467  -0.0000   0.1136
  59 H1  :3d1+  -0.0000  -0.3376  -0.5917   0.4698  -0.0551  -0.0000   0.6110
  60 H1  :3d2+  -0.0000   0.4883  -0.4571   0.3153  -0.0540  -0.0000   0.1592
  61 H2  :1s     0.0000   0.3263  15.2853   7.8297   7.4519   0.0000   7.4133
  62 H2  :1s     0.0000   0.1175   4.0718   1.4631   2.8513   0.0000   2.3743
  63 H2  :1s    -0.0000  -0.0910  -2.0383  -0.7899  -1.7745  -0.0000  -1.3078
  64 H2  :2px    0.0000   0.9967   4.2603   2.0114   1.2182   0.0000   1.7945
  65 H2  :2py    1.2581   0.0000   0.0000  -0.0000  -0.0000  -0.5902   0.0000
  66 H2  :2pz   -0.0000   1.1160  -2.6843  -2.1220  -1.2452  -0.0000  -1.9584
  67 H2  :2px   -0.0000   0.0214   0.7715   0.0804   0.7946  -0.0000   0.4980
  68 H2  :2py   -0.0693   0.0000   0.0000  -0.0000  -0.0000   0.2147   0.0000
  69 H2  :2pz   -0.0000  -0.0209  -0.5752  -0.2865  -0.5238  -0.0000  -0.3908
  70 H2  :3d2-   0.6588   0.0000   0.0000  -0.0000  -0.0000  -0.3330   0.0000
  71 H2  :3d1-  -0.5576   0.0000   0.0000  -0.0000  -0.0000   0.1072   0.0000
  72 H2  :3d0   -0.0000  -0.7306  -0.1209   0.0277   0.0467  -0.0000   0.1136
  73 H2  :3d1+   0.0000   0.3376  -0.5917  -0.4698  -0.0551   0.0000  -0.6110
  74 H2  :3d2+  -0.0000   0.4883   0.4571   0.3153   0.0540  -0.0000   0.1592

    Orbital        64       65       66       67       68       69       70
   1 O   :1s    -0.0000   1.2955   0.0000   0.5373  -0.0000   0.0000  -0.0000
   2 O   :1s     0.0000   8.8722   0.0000   3.3774  -0.0000   0.0000  -0.0000
   3 O   :1s    -0.0000   7.3863   0.0000   2.1882  -0.0000  -0.0000  -0.0000
   4 O   :1s     0.0000   0.9179   0.0000  -0.0235  -0.0000   0.0000  -0.0000
   5 O   :1s    -0.0000  -1.1246  -0.0000  -0.1866   0.0000  -0.0000   0.0000
   6 O   :2px    0.0000  -0.0000  -0.0000  -0.0000   0.0000  -0.0000   2.4570
   7 O   :2py    0.0000   0.0000   0.1369  -0.0000   0.0765   0.0000   0.0000
   8 O   :2pz   -0.0000   3.6403  -0.0000   0.4584   0.0000  -0.0000  -0.0000
   9 O   :2px    0.0000  -0.0000   0.0000  -0.0000  -0.0000  -0.0000   1.3823
  10 O   :2py    0.0000  -0.0000   0.2485   0.0000  -0.1924   0.0000  -0.0000
  11 O   :2pz    0.0000   2.7448   0.0000   0.0595  -0.0000   0.0000  -0.0000
  12 O   :2px   -0.0000   0.0000  -0.0000   0.0000   0.0000  -0.0000  -0.7331
  13 O   :2py    0.0000  -0.0000   0.0750   0.0000  -0.1883   0.0000  -0.0000
  14 O   :2pz   -0.0000  -0.7848  -0.0000  -0.2160   0.0000  -0.0000   0.0000
  15 O   :2px   -0.0000   0.0000  -0.0000  -0.0000   0.0000   0.0000   0.0209
  16 O   :2py    0.0000  -0.0000  -0.0578   0.0000   0.0931   0.0000  -0.0000
  17 O   :2pz    0.0000  -0.3564   0.0000   0.0826  -0.0000   0.0000   0.0000
  18 O   :3d2-   0.7720  -0.0000   0.0000   0.0000  -0.0000   0.0812   0.0000
  19 O   :3d1-  -0.0000  -0.0000   0.1713   0.0000   0.1450   0.0000  -0.0000
  20 O   :3d0   -0.0000   1.2782   0.0000  -0.5682  -0.0000  -0.0000   0.0000
  21 O   :3d1+   0.0000  -0.0000   0.0000  -0.0000  -0.0000  -0.0000   1.2155
  22 O   :3d2+  -0.0000  -0.0704   0.0000   0.5521  -0.0000  -0.0000  -0.0000
  23 O   :3d2-   0.7556  -0.0000   0.0000  -0.0000  -0.0000  -0.1891   0.0000
  24 O   :3d1-   0.0000  -0.0000   0.2189   0.0000  -0.0220   0.0000  -0.0000
  25 O   :3d0   -0.0000   0.7873   0.0000  -0.5648  -0.0000   0.0000   0.0000
  26 O   :3d1+   0.0000  -0.0000   0.0000  -0.0000  -0.0000   0.0000   0.5540
  27 O   :3d2+   0.0000   0.2135   0.0000   0.3267  -0.0000   0.0000  -0.0000
  28 O   :3d2-  -1.1222   0.0000   0.0000  -0.0000   0.0000  -0.2516   0.0000
  29 O   :3d1-   0.0000  -0.0000   0.0151   0.0000  -0.1835   0.0000  -0.0000
  30 O   :3d0   -0.0000  -1.0201   0.0000   0.0856  -0.0000  -0.0000   0.0000
  31 O   :3d1+  -0.0000   0.0000   0.0000  -0.0000  -0.0000  -0.0000  -0.4556
  32 O   :3d2+   0.0000   0.5191  -0.0000  -0.1231   0.0000   0.0000  -0.0000
  33 O   :4f3-   0.0000   0.0000  -0.1377  -0.0000   0.4604   0.0000   0.0000
  34 O   :4f2-   0.5810  -0.0000   0.0000   0.0000  -0.0000   0.5516   0.0000
  35 O   :4f1-  -0.0000  -0.0000  -0.3789   0.0000   0.0735  -0.0000  -0.0000
  36 O   :4f0    0.0000   0.5721  -0.0000   0.0734   0.0000   0.0000   0.0000
  37 O   :4f1+   0.0000   0.0000   0.0000   0.0000  -0.0000  -0.0000   0.3229
  38 O   :4f2+  -0.0000   0.0360   0.0000   0.4409  -0.0000  -0.0000  -0.0000
  39 O   :4f3+   0.0000  -0.0000   0.0000  -0.0000  -0.0000  -0.0000   0.4512
  40 O   :4f3-   0.0000  -0.0000   0.0437   0.0000  -0.9245   0.0000  -0.0000
  41 O   :4f2-   0.4525  -0.0000   0.0000   0.0000  -0.0000  -0.8941   0.0000
  42 O   :4f1-  -0.0000  -0.0000   0.9559   0.0000   0.1648  -0.0000  -0.0000
  43 O   :4f0    0.0000   0.2546   0.0000  -0.9932  -0.0000   0.0000   0.0000
  44 O   :4f1+   0.0000   0.0000   0.0000   0.0000  -0.0000  -0.0000   0.4138
  45 O   :4f2+  -0.0000  -0.1127   0.0000  -0.2880  -0.0000  -0.0000  -0.0000
  46 O   :4f3+  -0.0000  -0.0000   0.0000  -0.0000  -0.0000  -0.0000  -0.8917
  47 H1  :1s     0.0000  -5.7553  -0.0000  -2.0761   0.0000   0.0000  -4.0702
  48 H1  :1s     0.0000  -2.1611  -0.0000  -0.4314   0.0000   0.0000  -0.7691
  49 H1  :1s    -0.0000   1.2363   0.0000   0.2452  -0.0000  -0.0000   0.5346
  50 H1  :2px    0.0000   2.0124   0.0000   0.2100  -0.0000   0.0000   1.5688
  51 H1  :2py   -1.0151   0.0000  -0.1764  -0.0000   0.0678   0.1222   0.0000
  52 H1  :2pz    0.0000   0.0049   0.0000   1.0933  -0.0000   0.0000   0.6218
  53 H1  :2px   -0.0000   0.3617   0.0000   0.0764  -0.0000  -0.0000   0.2889
  54 H1  :2py    0.2919   0.0000  -0.1036  -0.0000   0.1295   0.1850   0.0000
  55 H1  :2pz    0.0000   0.7221  -0.0000   0.2110   0.0000  -0.0000   0.1447
  56 H1  :3d2-   0.3690  -0.0000   0.0879   0.0000   0.2860   0.2066  -0.0000
  57 H1  :3d1-   0.3617   0.0000  -0.2187  -0.0000  -0.0104   0.1982   0.0000
  58 H1  :3d0    0.0000   0.4774  -0.0000   0.0291   0.0000  -0.0000   0.1055
  59 H1  :3d1+   0.0000   0.2194  -0.0000  -0.2556   0.0000  -0.0000  -0.2506
  60 H1  :3d2+  -0.0000  -0.4790  -0.0000   0.1127   0.0000  -0.0000   0.0413
  61 H2  :1s     0.0000  -5.7553   0.0000  -2.0761  -0.0000  -0.0000   4.0702
  62 H2  :1s     0.0000  -2.1611   0.0000  -0.4314  -0.0000  -0.0000   0.7691
  63 H2  :1s    -0.0000   1.2363  -0.0000   0.2452   0.0000   0.0000  -0.5346
  64 H2  :2px    0.0000  -2.0124   0.0000  -0.2100  -0.0000   0.0000   1.5688
  65 H2  :2py    1.0151   0.0000  -0.1764  -0.0000   0.0678  -0.1222   0.0000
  66 H2  :2pz    0.0000   0.0049  -0.0000   1.0933   0.0000  -0.0000  -0.6218
  67 H2  :2px    0.0000  -0.3617  -0.0000  -0.0764   0.0000  -0.0000   0.2889
  68 H2  :2py   -0.2919   0.0000  -0.1036  -0.0000   0.1295  -0.1850   0.0000
  69 H2  :2pz   -0.0000   0.7221  -0.0000   0.2110   0.0000   0.0000  -0.1447
  70 H2  :3d2-   0.3690   0.0000  -0.0879  -0.0000  -0.2860   0.2066   0.0000
  71 H2  :3d1-  -0.3617   0.0000  -0.2187  -0.0000  -0.0104  -0.1982   0.0000
  72 H2  :3d0   -0.0000   0.4774  -0.0000   0.0291   0.0000   0.0000  -0.1055
  73 H2  :3d1+   0.0000  -0.2194   0.0000   0.2556  -0.0000  -0.0000  -0.2506
  74 H2  :3d2+  -0.0000  -0.4790  -0.0000   0.1127   0.0000   0.0000  -0.0413

    Orbital        71       72       73       74
   1 O   :1s     0.0000  -2.6678   0.0000  -0.1184
   2 O   :1s     0.0000 -18.1882   0.0000  -2.9165
   3 O   :1s     0.0000 -13.9915   0.0000  -4.8174
   4 O   :1s     0.0000  -0.7113   0.0000  -0.6108
   5 O   :1s    -0.0000   1.6533  -0.0000   1.2579
   6 O   :2px   -4.0810  -0.0000  -4.9581  -0.0000
   8 O   :2pz    0.0000  -5.2830   0.0000  -1.1527
   9 O   :2px   -3.1115  -0.0000  -5.2654  -0.0000
  11 O   :2pz   -0.0000  -4.3698   0.0000  -2.2519
  12 O   :2px    0.8716   0.0000   0.7411   0.0000
  14 O   :2pz   -0.0000   0.8381  -0.0000  -0.0204
  15 O   :2px    0.3536   0.0000   1.2260   0.0000
  17 O   :2pz   -0.0000   0.4988  -0.0000   0.8232
  20 O   :3d0   -0.0000   0.3715  -0.0000   0.2337
  21 O   :3d1+  -1.7109  -0.0000  -2.4036  -0.0000
  22 O   :3d2+   0.0000  -2.1703   0.0000  -0.7656
  25 O   :3d0   -0.0000   0.0847  -0.0000  -0.0024
  26 O   :3d1+  -0.9707  -0.0000  -2.6597  -0.0000
  27 O   :3d2+   0.0000  -1.3607   0.0000  -1.2455
  30 O   :3d0   -0.0000  -0.3003  -0.0000  -0.1347
  31 O   :3d1+   0.7069   0.0000   0.7302   0.0000
  32 O   :3d2+  -0.0000   0.7577  -0.0000   0.3463
  36 O   :4f0   -0.0000   0.7503  -0.0000   0.1627
  37 O   :4f1+  -0.8758  -0.0000  -0.5108  -0.0000
  38 O   :4f2+   0.0000  -1.0875   0.0000  -0.1109
  39 O   :4f3+  -0.2081  -0.0000  -0.1180  -0.0000
  43 O   :4f0   -0.0000  -0.0278  -0.0000   0.5588
  44 O   :4f1+   0.5934  -0.0000  -0.8860  -0.0000
  45 O   :4f2+  -0.0000  -0.0288   0.0000  -1.0366
  46 O   :4f3+  -0.0549  -0.0000  -0.4447  -0.0000
  47 H1  :1s     6.8850  12.2304   8.7370   3.6449
  48 H1  :1s     1.5976   3.1450   1.8706   0.8519
  49 H1  :1s    -1.0016  -1.8047  -1.3704  -0.5444
  50 H1  :2px   -1.9209  -2.5251  -1.0506   0.6912
  52 H1  :2pz   -1.2273  -2.6505  -0.3133   0.1645
  53 H1  :2px   -0.4538  -0.8830  -0.4755  -0.3603
  55 H1  :2pz   -0.4076  -0.5173  -0.4701  -0.1592
  58 H1  :3d0   -0.2795   0.3438  -0.2096   0.0531
  59 H1  :3d1+  -0.0380   0.1841  -0.5051  -0.6633
  60 H1  :3d2+   0.1897  -0.1251  -0.3481  -0.5496
  61 H2  :1s    -6.8850  12.2304  -8.7370   3.6449
  62 H2  :1s    -1.5976   3.1450  -1.8706   0.8519
  63 H2  :1s     1.0016  -1.8047   1.3704  -0.5444
  64 H2  :2px   -1.9209   2.5251  -1.0506  -0.6912
  66 H2  :2pz    1.2273  -2.6505   0.3133   0.1645
  67 H2  :2px   -0.4538   0.8830  -0.4755   0.3603
  69 H2  :2pz    0.4076  -0.5173   0.4701  -0.1592
  72 H2  :3d0    0.2795   0.3438   0.2096   0.0531
  73 H2  :3d1+  -0.0380  -0.1841  -0.5051   0.6633
  74 H2  :3d2+  -0.1897  -0.1251   0.3481  -0.5496



 >>>> Total CPU  time used in SIRIUS :      0.44 seconds
 >>>> Total wall time used in SIRIUS :      0.44 seconds

 
     Date and time (Linux)  : Thu Dec 11 11:25:21 2014
     Host name              : rho                                     

 NOTE:    1 warnings have been issued.
 Check output, result, and error files for "WARNING".


                     .---------------------------------------.
                     | End of Wave Function Section (SIRIUS) |
                     `---------------------------------------'

 >>>> Total CPU  time used in DALTON:   9.41 seconds
 >>>> Total wall time used in DALTON:   9.40 seconds

 
     Date and time (Linux)  : Thu Dec 11 11:25:21 2014
     Host name              : rho                                     
