

     ************************************************************************
     *************** Dalton - An Electronic Structure Program ***************
     ************************************************************************

    This is output from DALTON 2013.4
   ----------------------------------------------------------------------------
    NOTE:
     
    Dalton is an experimental code for the evaluation of molecular
    properties using (MC)SCF, DFT, CI, and CC wave functions.
    The authors accept no responsibility for the performance of
    the code or for the correctness of the results.
     
    The code (in whole or part) is provided under a licence and
    is not to be reproduced for further distribution without
    the written permission of the authors or their representatives.
     
    See the home page "http://daltonprogram.org" for further information.
     
    If results obtained with this code are published,
    the appropriate citations would be both of:
     
       K. Aidas, C. Angeli, K. L. Bak, V. Bakken, R. Bast,
       L. Boman, O. Christiansen, R. Cimiraglia, S. Coriani,
       P. Dahle, E. K. Dalskov, U. Ekstroem, T. Enevoldsen,
       J. J. Eriksen, P. Ettenhuber, B. Fernandez, L. Ferrighi,
       H. Fliegl, L. Frediani, K. Hald, A. Halkier, C. Haettig,
       H. Heiberg, T. Helgaker, A. C. Hennum, H. Hettema,
       E. Hjertenaes, S. Hoest, I.-M. Hoeyvik, M. F. Iozzi,
       B. Jansik, H. J. Aa. Jensen, D. Jonsson, P. Joergensen,
       J. Kauczor, S. Kirpekar, T. Kjaergaard, W. Klopper,
       S. Knecht, R. Kobayashi, H. Koch, J. Kongsted, A. Krapp,
       K. Kristensen, A. Ligabue, O. B. Lutnaes, J. I. Melo,
       K. V. Mikkelsen, R. H. Myhre, C. Neiss, C. B. Nielsen,
       P. Norman, J. Olsen, J. M. H. Olsen, A. Osted,
       M. J. Packer, F. Pawlowski, T. B. Pedersen, P. F. Provasi,
       S. Reine, Z. Rinkevicius, T. A. Ruden, K. Ruud, V. Rybkin,
       P. Salek, C. C. M. Samson, A. Sanchez de Meras, T. Saue,
       S. P. A. Sauer, B. Schimmelpfennig, K. Sneskov,
       A. H. Steindal, K. O. Sylvester-Hvid, P. R. Taylor,
       A. M. Teale, E. I. Tellgren, D. P. Tew, A. J. Thorvaldsen,
       L. Thoegersen, O. Vahtras, M. A. Watson, D. J. D. Wilson,
       M. Ziolkowski and H. Aagren,
       "The Dalton quantum chemistry program system",
       WIREs Comput. Mol. Sci. 2013. (doi: 10.1002/wcms.1172)
    
    and
    
       Dalton, a Molecular Electronic Structure Program,
       Release DALTON2013.4 (2014), see http://daltonprogram.org
   ----------------------------------------------------------------------------

    Authors in alphabetical order (major contribution(s) in parenthesis):

  Kestutis Aidas,           Vilnius University,           Lithuania   (QM/MM)
  Celestino Angeli,         University of Ferrara,        Italy       (NEVPT2)
  Keld L. Bak,              UNI-C,                        Denmark     (AOSOPPA, non-adiabatic coupling, magnetic properties)
  Vebjoern Bakken,          University of Oslo,           Norway      (DALTON; geometry optimizer, symmetry detection)
  Radovan Bast,             KTH Stockholm,                Sweden      (DALTON installation and execution frameworks)
  Linus Boman,              NTNU,                         Norway      (Cholesky decomposition and subsystems)
  Ove Christiansen,         Aarhus University,            Denmark     (CC module)
  Renzo Cimiraglia,         University of Ferrara,        Italy       (NEVPT2)
  Sonia Coriani,            University of Trieste,        Italy       (CC module, MCD in RESPONS)
  Paal Dahle,               University of Oslo,           Norway      (Parallelization)
  Erik K. Dalskov,          UNI-C,                        Denmark     (SOPPA)
  Thomas Enevoldsen,        Univ. of Southern Denmark,    Denmark     (SOPPA)
  Janus J. Eriksen,         Aarhus University,            Denmark     (PE-MP2/SOPPA, TDA)
  Berta Fernandez,          U. of Santiago de Compostela, Spain       (doublet spin, ESR in RESPONS)
  Lara Ferrighi,            Aarhus University,            Denmark     (PCM Cubic response)
  Heike Fliegl,             University of Oslo,           Norway      (CCSD(R12))
  Luca Frediani,            UiT The Arctic U. of Norway,  Norway      (PCM)
  Bin Gao,                  UiT The Arctic U. of Norway,  Norway      (Gen1Int library)
  Christof Haettig,         Ruhr-University Bochum,       Germany     (CC module)
  Kasper Hald,              Aarhus University,            Denmark     (CC module)
  Asger Halkier,            Aarhus University,            Denmark     (CC module)
  Hanne Heiberg,            University of Oslo,           Norway      (geometry analysis, selected one-electron integrals)
  Trygve Helgaker,          University of Oslo,           Norway      (DALTON; ABACUS, ERI, DFT modules, London, and much more)
  Alf Christian Hennum,     University of Oslo,           Norway      (Parity violation)
  Hinne Hettema,            University of Auckland,       New Zealand (quadratic response in RESPONS; SIRIUS supersymmetry)
  Eirik Hjertenaes,         NTNU,                         Norway      (Cholesky decomposition)
  Maria Francesca Iozzi,    University of Oslo,           Norway      (RPA)
  Brano Jansik              Technical Univ. of Ostrava    Czech Rep.  (DFT cubic response)
  Hans Joergen Aa. Jensen,  Univ. of Southern Denmark,    Denmark     (DALTON; SIRIUS, RESPONS, ABACUS modules, London, and much more)
  Dan Jonsson,              UiT The Arctic U. of Norway,  Norway      (cubic response in RESPONS module)
  Poul Joergensen,          Aarhus University,            Denmark     (RESPONS, ABACUS, and CC modules)
  Joanna Kauczor,           Linkoeping University,        Sweden      (Complex polarization propagator (CPP) module)
  Sheela Kirpekar,          Univ. of Southern Denmark,    Denmark     (Mass-velocity & Darwin integrals)
  Wim Klopper,              KIT Karlsruhe,                Germany     (R12 code in CC, SIRIUS, and ABACUS modules)
  Stefan Knecht,            ETH Zurich,                   Switzerland (Parallel CI and MCSCF)
  Rika Kobayashi,           Australian National Univ.,    Australia   (DIIS in CC, London in MCSCF)
  Henrik Koch,              NTNU,                         Norway      (CC module, Cholesky decomposition)
  Jacob Kongsted,           Univ. of Southern Denmark,    Denmark     (Polarizable embedding, QM/MM)
  Andrea Ligabue,           University of Modena,         Italy       (CTOCD, AOSOPPA)
  Ola B. Lutnaes,           University of Oslo,           Norway      (DFT Hessian)
  Juan I. Melo,             University of Buenos Aires,   Argentina   (LRESC, Relativistic Effects on NMR Shieldings)
  Kurt V. Mikkelsen,        University of Copenhagen,     Denmark     (MC-SCRF and QM/MM)
  Rolf H. Myhre,            NTNU,                         Norway      (Cholesky, subsystems and ECC2)
  Christian Neiss,          Univ. Erlangen-Nuernberg,     Germany     (CCSD(R12))
  Christian B. Nielsen,     University of Copenhagen,     Denmark     (QM/MM)
  Patrick Norman,           Linkoeping University,        Sweden      (Cubic response and complex response in RESPONS)
  Jeppe Olsen,              Aarhus University,            Denmark     (SIRIUS CI/density modules)
  Jogvan Magnus H. Olsen,   Univ. of Southern Denmark,    Denmark     (Polarizable embedding, PE library, QM/MM)
  Anders Osted,             Copenhagen University,        Denmark     (QM/MM)
  Martin J. Packer,         University of Sheffield,      UK          (SOPPA)
  Filip Pawlowski,          Kazimierz Wielki University,  Poland      (CC3)
  Thomas B. Pedersen,       University of Oslo,           Norway      (Cholesky decomposition)
  Patricio F. Provasi,      University of Northeastern,   Argentina   (Analysis of coupling constants in localized orbitals)
  Zilvinas Rinkevicius,     KTH Stockholm,                Sweden      (open-shell DFT, ESR)
  Elias Rudberg,            KTH Stockholm,                Sweden      (DFT grid and basis info)
  Torgeir A. Ruden,         University of Oslo,           Norway      (Numerical derivatives in ABACUS)
  Kenneth Ruud,             UiT The Arctic U. of Norway,  Norway      (DALTON; ABACUS magnetic properties and  much more)
  Pawel Salek,              KTH Stockholm,                Sweden      (DALTON; DFT code)
  Claire C. M. Samson       University of Karlsruhe       Germany     (Boys localization, r12 integrals in ERI)
  Alfredo Sanchez de Meras, University of Valencia,       Spain       (CC module, Cholesky decomposition)
  Trond Saue,               Paul Sabatier University,     France      (direct Fock matrix construction)
  Stephan P. A. Sauer,      University of Copenhagen,     Denmark     (SOPPA(CCSD), SOPPA prop., AOSOPPA, vibrational g-factors)
  Bernd Schimmelpfennig,    Forschungszentrum Karlsruhe,  Germany     (AMFI module)
  Kristian Sneskov,         Aarhus University,            Denmark     (QM/MM, PE-CC)
  Arnfinn H. Steindal,      UiT The Arctic U. of Norway,  Norway      (parallel QM/MM)
  K. O. Sylvester-Hvid,     University of Copenhagen,     Denmark     (MC-SCRF)
  Peter R. Taylor,          VLSCI/Univ. of Melbourne,     Australia   (Symmetry handling ABACUS, integral transformation)
  Andrew M. Teale,          University of Nottingham,     England     (DFT-AC, DFT-D)
  David P. Tew,             University of Bristol,        England     (CCSD(R12))
  Olav Vahtras,             KTH Stockholm,                Sweden      (triplet response, spin-orbit, ESR, TDDFT, open-shell DFT)
  David J. Wilson,          La Trobe University,          Australia   (DFT Hessian and DFT magnetizabilities)
  Hans Agren,               KTH Stockholm,                Sweden      (SIRIUS module, RESPONS, MC-SCRF solvation model)
 --------------------------------------------------------------------------------

     Date and time (Linux)  : Thu Dec 11 13:35:26 2014
     Host name              : rho                                     

 * Work memory size             :    64000000 =  488.28 megabytes.

 * Directories for basis set searches:
   1) /home/vahtras/proj/L-edge_splitting/o2
   2) /home/vahtras/dev/dalton/git/build/Dalton2013_release/basis


Compilation information
-----------------------

 Who compiled             | vahtras
 Host                     | rho
 System                   | Linux-3.13.0-40-generic
 CMake generator          | Unix Makefiles
 Processor                | x86_64
 64-bit integers          | OFF
 MPI                      | ON
 Fortran compiler         | /usr/bin/mpif90
 Fortran compiler version | GNU Fortran (Ubuntu 4.8.2-19ubuntu1) 4.8.2
 C compiler               | /usr/bin/mpicc
 C compiler version       | gcc (Ubuntu 4.8.2-19ubuntu1) 4.8.2
 C++ compiler             | /usr/bin/mpicxx
 C++ compiler version     | unknown
 BLAS                     | /usr/lib/libblas.so
 LAPACK                   | /usr/lib/liblapack.so
 Static linking           | OFF
 Last Git revision        | 292488a326ed79edf79bfe3b3aeebdfc630340f7
 Configuration time       | 2014-12-11 13:35:14.829568

 * Sequential calculation.


   Content of the .dal input file
 ----------------------------------

**DALTON                                          
.RUN RESP                                         
**INTEGRAL                                        
.SPIN-ORBIT                                       
.PROPRI                                           
**WAVE FUNCTION                                   
.HF                                               
.INTERFACE                                        
*PRINT                                            
.CMOPRI                                           
**RESPONS                                         
.PROPAV                                           
OVERLAP                                           
**END OF                                          


   Content of the .mol file
 ----------------------------

ATOMBASIS                                                                      
Energy calculation without symmetry                                            
Basis set specified with ATOMBASIS                                             
    1                                                                          
        8.    2      Basis=STO-3G                                              
O         0.0 0.0 -1.2249058930                                                
O         0.0 0.0 1.2249058930                                                 


       *******************************************************************
       *********** Output from DALTON general input processing ***********
       *******************************************************************

 --------------------------------------------------------------------------------
   Overall default print level:    0
   Print level for DALTON.STAT:    1

    HERMIT 1- and 2-electron integral sections will be executed
    "Old" integral transformation used (limited to max 255 basis functions)
    Wave function sections will be executed (SIRIUS module)
    Dynamic molecular response properties section will be executed (RESPONSE module)
 --------------------------------------------------------------------------------


   ****************************************************************************
   *************** Output of molecule and basis set information ***************
   ****************************************************************************


    The two title cards from your ".mol" input:
    ------------------------------------------------------------------------
 1: Energy calculation without symmetry                                     
 2: Basis set specified with ATOMBASIS                                      
    ------------------------------------------------------------------------

  Atomic type no.    1
  --------------------
  Nuclear charge:   8.00000
  Number of symmetry independent centers:    2
  Number of basis sets to read;    2
  The basis set is "STO-3G" from the basis set library.
  Basis set file used for this atomic type with Z =   8 :
     "/home/vahtras/dev/dalton/git/build/Dalton2013_release/basis/STO-3G"


                      SYMADD: Requested addition of symmetry
                      --------------------------------------

 Symmetry test threshold:  5.00E-06

@   The molecule is centered at center of mass and rotated
@   so principal axes of inertia are along coordinate axes.

 Symmetry class found: D(oo,h)        

 Symmetry Independent Centres             
 ----------------------------
       8 :      0.00000000     0.00000000     1.22490589  Isotope  1

 The following elements were found:   X  Y  Z  


                         SYMGRP: Point group information
                         -------------------------------

@    Full point group is: D(oo,h)        
@    Represented as:      D2h

@  * The irrep name for each symmetry:    1: Ag     2: B3u    3: B2u    4: B1g    5: B1u    6: B2g    7: B3g    8: Au 


   * The point group was generated by:

      Reflection in the yz-plane
      Reflection in the xz-plane
      Reflection in the xy-plane

   * Group multiplication table

        |  E   C2z  C2y  C2x   i   Oxy  Oxz  Oyz
   -----+----------------------------------------
     E  |  E   C2z  C2y  C2x   i   Oxy  Oxz  Oyz
    C2z | C2z   E   C2x  C2y  Oxy   i   Oyz  Oxz
    C2y | C2y  C2x   E   C2z  Oxz  Oyz   i   Oxy
    C2x | C2x  C2y  C2z   E   Oyz  Oxz  Oxy   i 
     i  |  i   Oxy  Oxz  Oyz   E   C2z  C2y  C2x
    Oxy | Oxy   i   Oyz  Oxz  C2z   E   C2x  C2y
    Oxz | Oxz  Oyz   i   Oxy  C2y  C2x   E   C2z
    Oyz | Oyz  Oxz  Oxy   i   C2x  C2y  C2z   E 

   * Character table

        |  E   C2z  C2y  C2x   i   Oxy  Oxz  Oyz
   -----+----------------------------------------
    Ag  |   1    1    1    1    1    1    1    1
    B3u |   1   -1   -1    1   -1    1    1   -1
    B2u |   1   -1    1   -1   -1    1   -1    1
    B1g |   1    1   -1   -1    1    1   -1   -1
    B1u |   1    1   -1   -1   -1   -1    1    1
    B2g |   1   -1    1   -1    1   -1    1   -1
    B3g |   1   -1   -1    1    1   -1   -1    1
    Au  |   1    1    1    1   -1   -1   -1   -1

   * Direct product table

        | Ag   B3u  B2u  B1g  B1u  B2g  B3g  Au 
   -----+----------------------------------------
    Ag  | Ag   B3u  B2u  B1g  B1u  B2g  B3g  Au 
    B3u | B3u  Ag   B1g  B2u  B2g  B1u  Au   B3g
    B2u | B2u  B1g  Ag   B3u  B3g  Au   B1u  B2g
    B1g | B1g  B2u  B3u  Ag   Au   B3g  B2g  B1u
    B1u | B1u  B2g  B3g  Au   Ag   B3u  B2u  B1g
    B2g | B2g  B1u  Au   B3g  B3u  Ag   B1g  B2u
    B3g | B3g  Au   B1u  B2g  B2u  B1g  Ag   B3u
    Au  | Au   B3g  B2g  B1u  B1g  B2u  B3u  Ag 


                                 Isotopic Masses
                                 ---------------

                           O   _1     15.994915
                           O   _2     15.994915

                       Total mass:    31.989830 amu
                       Natural abundance:  99.521 %

 Center-of-mass coordinates (a.u.):    0.000000    0.000000    0.000000


  Atoms and basis sets
  --------------------

  Number of atom types :    1
  Total number of atoms:    2

  label    atoms   charge   prim   cont     basis
  ----------------------------------------------------------------------
  O           2    8.0000    15     5      [6s3p|2s1p]                                        
  ----------------------------------------------------------------------
  total:      2   16.0000    30    10
  ----------------------------------------------------------------------

  Threshold for neglecting AO integrals:  1.00D-12


  Cartesian Coordinates (a.u.)
  ----------------------------

  Total number of coordinates:    6
  O   / 1 :     1  x   0.0000000000    2  y   0.0000000000    3  z   1.2249058930
  O   / 2 :     4  x   0.0000000000    5  y   0.0000000000    6  z  -1.2249058930


  Symmetry Coordinates
  --------------------

  Number of coordinates in each symmetry:     1    1    1    0    1    1    1    0

  Symmetry  Ag  ( 1)

    1   O     z    [  3  -    6 ]/2

  Symmetry  B3u ( 2)

    2   O     x    [  1  +    4 ]/2

  Symmetry  B2u ( 3)

    3   O     y    [  2  +    5 ]/2

  Symmetry  B1u ( 5)

    4   O     z    [  3  +    6 ]/2

  Symmetry  B2g ( 6)

    5   O     x    [  1  -    4 ]/2

  Symmetry  B3g ( 7)

    6   O     y    [  2  -    5 ]/2


   Interatomic separations (in Angstrom):
   --------------------------------------

            O   _1      O   _2
            ------      ------
 O   _1:    0.000000
 O   _2:    1.296385    0.000000


  Max    interatomic separation is    1.2964 Angstrom (    2.4498 Bohr)
  between atoms    2 and    1, "O   _2" and "O   _1".

  Min YX interatomic separation is    1.2964 Angstrom (    2.4498 Bohr)


  Bond distances (Angstrom):
  --------------------------

                  atom 1     atom 2       distance
                  ------     ------       --------
  bond distance:  O   _2     O   _1       1.296385




 Principal moments of inertia (u*A**2) and principal axes
 --------------------------------------------------------

   IA       0.000000          0.000000    0.000000    1.000000
   IB      13.440631          0.000000    1.000000    0.000000
   IC      13.440631          1.000000    0.000000    0.000000


 Rotational constants
 --------------------

@    The molecule is linear.

               B =        37600.84 MHz     (    1.254229 cm-1)


@  Nuclear repulsion energy :   26.124455913610 Hartree


  Symmetry Orbitals
  -----------------

  Number of orbitals in each symmetry:           3    1    1    0    3    1    1    0


  Symmetry  Ag ( 1)

    1     O        1s         1 +    2
    2     O        1s         3 +    4
    3     O        2pz        9 -   10


  Symmetry  B3u( 2)

    4     O        2px        5 +    6


  Symmetry  B2u( 3)

    5     O        2py        7 +    8


  No orbitals in symmetry  B1g( 4)


  Symmetry  B1u( 5)

    6     O        1s         1 -    2
    7     O        1s         3 -    4
    8     O        2pz        9 +   10


  Symmetry  B2g( 6)

    9     O        2px        5 -    6


  Symmetry  B3g( 7)

   10     O        2py        7 -    8


  No orbitals in symmetry  Au ( 8)

  Symmetries of electric field:  B3u(2)  B2u(3)  B1u(5)

  Symmetries of magnetic field:  B3g(7)  B2g(6)  B1g(4)


                     .---------------------------------------.
                     | Starting in Integral Section (HERMIT) |
                     `---------------------------------------'



 ***************************************************************************************
 ****************** Output from **INTEGRALS input processing (HERMIT) ******************
 ***************************************************************************************


 Default print level:        1

 * Nuclear model: Point charge

 Calculation of one- and two-electron Hamiltonian integrals.

 The following one-electron property integrals are calculated as requested:
          - overlap integrals
          - spatial spin-orbit integrals

 All one-electron property integrals are printed.

 Center of mass  (bohr):      0.000000000000      0.000000000000      0.000000000000
 Operator center (bohr):      0.000000000000      0.000000000000      0.000000000000
 Gauge origin    (bohr):      0.000000000000      0.000000000000      0.000000000000
 Dipole origin   (bohr):      0.000000000000      0.000000000000      0.000000000000


     ************************************************************************
     ************************** Output from HERINT **************************
     ************************************************************************



                        +---------------------------------+
                        ! Integrals of operator: HUCKOVLP !
                        +---------------------------------+

 Symmetry of operator:  Ag ( 1)

               Column   1     Column   2     Column   3     Column   4
       1       2.00000000
       2       0.50716686     2.46952960
       3      -0.05860300    -0.56004071     2.56967319
       4       1.99921991     0.54341910    -0.06435017     1.99989396
       5       0.00387415     2.42640604    -0.54177379     0.04185383
       6      -0.08406098    -0.71725580     2.47862284    -0.09167340

               Column   5     Column   6     Column   7     Column   8
       5       2.52084440
       6      -0.70101506     2.45262709
       7       0.00000000     0.00000000     2.24329607
       8       0.00000000     0.00000000     2.27519382     2.42162297

               Column   9     Column  10     Column  11     Column  12
       9       2.24329607
      10       2.27519382     2.42162297
      11       0.00000000     0.00000000     2.00000000
      12       0.00000000     0.00000000     0.43964888     1.53047040
      13       0.00000000     0.00000000     0.05860300     0.56004071
      14       0.00000000     0.00000000     1.99932985     0.46878227
      15       0.00000000     0.00000000    -0.07204815     1.43695566
      16       0.00000000     0.00000000     0.08406098     0.71725580

               Column  13     Column  14     Column  15     Column  16
      13       1.43032681
      14       0.06435017     2.00010604
      15       0.54177379    -0.04185384     1.47915560
      16       1.44531108     0.09167340     0.70101506     1.54737291

               Column  17     Column  18     Column  19     Column  20
      17       1.75670393
      18       1.64874011     1.57837703
      19       0.00000000     0.00000000     1.75670393
      20       0.00000000     0.00000000     1.64874011     1.57837703
    ==== End of matrix output ====


                         +-------------------------------+
                         ! Integrals of operator: HUCKEL !
                         +-------------------------------+

 Symmetry of operator:  Ag ( 1)

               Column   1     Column   2     Column   3     Column   4
       1       2.00000000
       2       0.50716686     2.46952960
       3      -0.05860300    -0.56004071     2.56967319
       4       1.41366196     0.38425533    -0.04550244   -20.68007766
       5       0.00273944     1.71572817    -0.38309192    -0.17210794
       6      -0.05944009    -0.50717644     1.75265102     0.36607080

               Column   5     Column   6     Column   7     Column   8
       5      -1.49462394
       6       0.24534651    -0.72079080
       7       0.00000000     0.00000000     2.24329607
       8       0.00000000     0.00000000     1.60880498    -0.71362653

               Column   9     Column  10     Column  11     Column  12
       9       2.24329607
      10       1.60880498    -0.71362653
      11       0.00000000     0.00000000     2.00000000
      12       0.00000000     0.00000000     0.43964888     1.53047040
      13       0.00000000     0.00000000     0.05860300     0.56004071
      14       0.00000000     0.00000000     1.41373970     0.33147912
      15       0.00000000     0.00000000    -0.05094573     1.01608109
      16       0.00000000     0.00000000     0.05944009     0.50717644

               Column  13     Column  14     Column  15     Column  16
      13       1.43032681
      14       0.04550244   -20.68172234
      15       0.38309192     0.17210794    -1.00617606
      16       1.02198927    -0.36607080    -0.24534651    -0.51160920

               Column  17     Column  18     Column  19     Column  20
      17       1.75670393
      18       1.16583531    -0.51877347
      19       0.00000000     0.00000000     1.75670393
      20       0.00000000     0.00000000     1.16583531    -0.51877347
    ==== End of matrix output ====


                         +--------------------------------+
                         ! Integrals of operator: OVERLAP !
                         +--------------------------------+

 Symmetry of operator:  Ag ( 1)

               Column   1     Column   2     Column   3     Column   4
       1       2.00000000
       2       0.50716686     2.46952960
       3      -0.05860300    -0.56004071     2.56967319
       4       0.00000000     0.00000000     0.00000000     2.24329607

               Column   5     Column   6     Column   7     Column   8
       5       2.24329607
       6       0.00000000     2.00000000
       7       0.00000000     0.43964888     1.53047040
       8       0.00000000     0.05860300     0.56004071     1.43032681

               Column   9     Column  10
       9       1.75670393
      10       0.00000000     1.75670393
    ==== End of matrix output ====


                        +---------------------------------+
                        ! Integrals of operator: HJPOPOVL !
                        +---------------------------------+

 Symmetry of operator:  Ag ( 1)

               Column   1     Column   2     Column   3     Column   4     Column   5
       1       2.00000000     0.47641013    -0.00581999     0.00000000     0.00000000
       2       0.53792359     2.46952960    -0.60428243     0.00000000     0.00000000
       3      -0.11138600    -0.51579899     2.56967319     0.00000000     0.00000000
       4       0.00000000     0.00000000     0.00000000     2.24329607     0.00000000
       5       0.00000000     0.00000000     0.00000000     0.00000000     2.24329607

               Column   6     Column   7     Column   8     Column   9     Column  10
       6       2.00000000     0.47040561     0.00581999     0.00000000     0.00000000
       7       0.40889215     1.53047040     0.60428243     0.00000000     0.00000000
       8       0.11138600     0.51579899     1.43032681     0.00000000     0.00000000
       9       0.00000000     0.00000000     0.00000000     1.75670393     0.00000000
      10       0.00000000     0.00000000     0.00000000     0.00000000     1.75670393
    ==== End of matrix output ====


                         +--------------------------------+
                         ! Integrals of operator: XDIPLEN !
                         +--------------------------------+

 Symmetry of operator:  B3u( 2)

               Column   1     Column   2     Column   3     Column   4
       4       0.10299376     1.53720179    -0.29801479     0.00000000

               Column   5     Column   6     Column   7     Column   8
       9       0.00000000     0.10017396     1.02748959     0.29801479

               Column   9     Column  10
    ==== End of matrix output ====


                         +--------------------------------+
                         ! Integrals of operator: YDIPLEN !
                         +--------------------------------+

 Symmetry of operator:  B2u( 3)

               Column   1     Column   2     Column   3     Column   4
       5       0.10299376     1.53720179    -0.29801479     0.00000000

               Column   5     Column   6     Column   7     Column   8
      10       0.00000000     0.10017396     1.02748959     0.29801479

               Column   9     Column  10
    ==== End of matrix output ====


                         +--------------------------------+
                         ! Integrals of operator: ZDIPLEN !
                         +--------------------------------+

 Symmetry of operator:  B1u( 5)

               Column   1     Column   2     Column   3     Column   4
       6       2.44981179     0.61755419     0.03551974     0.00000000
       7       0.54220599     2.44981179     1.08168153     0.00000000
       8       0.16764798     1.48300985     2.44981179     0.00000000
       9       0.00000000     0.00000000     0.00000000     2.44981179

               Column   5     Column   6     Column   7     Column   8
      10       2.44981179     0.00000000     0.00000000     0.00000000

               Column   9     Column  10
    ==== End of matrix output ====


                        +---------------------------------+
                        ! Integrals of operator: XXQUADRU !
                        +---------------------------------+

 Symmetry of operator:  Ag ( 1)

               Column   1     Column   2     Column   3     Column   4
       1       0.76721807
       2       0.20292274     1.38297655
       3       0.04190207     0.65117117     1.37525600
       4       0.00000000     0.00000000     0.00000000     1.11401901

               Column   5     Column   6     Column   7     Column   8
       5       1.46485458
       6       0.00000000     0.76721807
       7       0.00000000     0.17995457     1.10074656
       8       0.00000000     0.08252860     0.91958162     1.31350112

               Column   9     Column  10
       9       0.98055677
      10       0.00000000     1.22390253
    ==== End of matrix output ====


                        +---------------------------------+
                        ! Integrals of operator: XYQUADRU !
                        +---------------------------------+

 Symmetry of operator:  B1g( 4)

               Column   1     Column   2     Column   3     Column   4
       5       0.00000000     0.00000000     0.00000000    -0.17541779

               Column   5     Column   6     Column   7     Column   8

               Column   9     Column  10
      10      -0.12167288     0.00000000
    ==== End of matrix output ====


                        +---------------------------------+
                        ! Integrals of operator: XZQUADRU !
                        +---------------------------------+

 Symmetry of operator:  B2g( 6)

               Column   1     Column   2     Column   3     Column   4
       6       0.00000000     0.00000000     0.00000000    -0.03148744
       7       0.00000000     0.00000000     0.00000000    -0.38108455
       8       0.00000000     0.00000000     0.00000000    -0.18840400
       9      -0.03072790    -0.40429185    -0.10868667     0.00000000

               Column   5     Column   6     Column   7     Column   8

               Column   9     Column  10
    ==== End of matrix output ====


                        +---------------------------------+
                        ! Integrals of operator: YYQUADRU !
                        +---------------------------------+

 Symmetry of operator:  Ag ( 1)

               Column   1     Column   2     Column   3     Column   4
       1       0.76721807
       2       0.20292274     1.38297655
       3       0.04190207     0.65117117     1.37525600
       4       0.00000000     0.00000000     0.00000000     1.46485458

               Column   5     Column   6     Column   7     Column   8
       5       1.11401901
       6       0.00000000     0.76721807
       7       0.00000000     0.17995457     1.10074656
       8       0.00000000     0.08252860     0.91958162     1.31350112

               Column   9     Column  10
       9       1.22390253
      10       0.00000000     0.98055677
    ==== End of matrix output ====


                        +---------------------------------+
                        ! Integrals of operator: YZQUADRU !
                        +---------------------------------+

 Symmetry of operator:  B3g( 7)

               Column   1     Column   2     Column   3     Column   4
      10      -0.03072790    -0.40429185    -0.10868667     0.00000000

               Column   5     Column   6     Column   7     Column   8
       6      -0.03148744     0.00000000
       7      -0.38108455     0.00000000     0.00000000
       8      -0.18840400     0.00000000     0.00000000     0.00000000

               Column   9     Column  10
    ==== End of matrix output ====


                        +---------------------------------+
                        ! Integrals of operator: ZZQUADRU !
                        +---------------------------------+

 Symmetry of operator:  Ag ( 1)

               Column   1     Column   2     Column   3     Column   4
       1       0.01702085
       2       0.01480855     0.62071327
       3      -0.00162304    -0.13288007     0.39989338
       4       0.00000000     0.00000000     0.00000000     0.70167115

               Column   5     Column   6     Column   7     Column   8
       5       0.70167115
       6       0.00000000     0.01702085
       7       0.00000000     0.01291949     0.36261539
       8       0.00000000     0.00162304     0.13288007     0.19428796

               Column   9     Column  10
       9       0.48669152
      10       0.00000000     0.48669152
    ==== End of matrix output ====


                        +---------------------------------+
                        ! Integrals of operator: KINENERG !
                        +---------------------------------+

 Symmetry of operator:  Ag ( 1)

               Column   1     Column   2     Column   3     Column   4
       1      58.00639971
       2      -0.35938126     1.62447140
       3       0.02567120    -0.21039801     5.58349871
       4       0.00000000     0.00000000     0.00000000     5.13154219

               Column   5     Column   6     Column   7     Column   8
       5       5.13154219
       6       0.00000000    58.00640007
       7       0.00000000    -0.31266249     1.60804042
       8       0.00000000    -0.02567120     0.21039801     4.53142609

               Column   9     Column  10
       9       4.98338260
      10       0.00000000     4.98338260
    ==== End of matrix output ====


                        +---------------------------------+
                        ! Integrals of operator: X1SPNORB !
                        +---------------------------------+

 Symmetry of operator:  B3g( 7)

               Column   1     Column   2     Column   3     Column   4
      10       2.63406140    -0.96544825    59.03628103     0.00000000

               Column   5     Column   6     Column   7     Column   8
       6      -2.70898066     0.00000000
       7      -4.41849198     0.00000000     0.00000000
       8     -53.14397395     0.00000000     0.00000000     0.00000000

               Column   9     Column  10
    ==== End of matrix output ====


                        +---------------------------------+
                        ! Integrals of operator: Y1SPNORB !
                        +---------------------------------+

 Symmetry of operator:  B2g( 6)

               Column   1     Column   2     Column   3     Column   4
       6       0.00000000     0.00000000     0.00000000     2.70898066
       7       0.00000000     0.00000000     0.00000000     4.41849198
       8       0.00000000     0.00000000     0.00000000    53.14397395
       9      -2.63406140     0.96544825   -59.03628103     0.00000000

               Column   5     Column   6     Column   7     Column   8

               Column   9     Column  10
    ==== End of matrix output ====


                        +---------------------------------+
                        ! Integrals of operator: Z1SPNORB !
                        +---------------------------------+

 Symmetry of operator:  B1g( 4)

               Column   1     Column   2     Column   3     Column   4
       5       0.00000000     0.00000000     0.00000000   -59.82625576

               Column   5     Column   6     Column   7     Column   8

               Column   9     Column  10
      10     -55.56409851     0.00000000
    ==== End of matrix output ====

 Threshold for neglecting two-electron integrals:  1.00D-12
 Number of two-electron integrals written:         292 ( 19.0% )
 Megabytes written:                              0.007


   Two-electron spin-orbit integrals
   =================================
   Spin-orbit 2-electron CPU  time      0. seconds
   Spin-orbit 2-electron wall time      0. seconds
 >>>> Total CPU  time used in HERMIT:   0.02 seconds
 >>>> Total wall time used in HERMIT:   0.02 seconds


                        .----------------------------------.
                        | End of Integral Section (HERMIT) |
                        `----------------------------------'



                   .--------------------------------------------.
                   | Starting in Wave Function Section (SIRIUS) |
                   `--------------------------------------------'


 *** Output from Huckel module :

     Using EWMO model:          F
     Using EHT  model:          T
     Number of Huckel orbitals each symmetry:    3    1    1    0    3    1    1    0

 Huckel EHT eigenvalues for symmetry :  1
          -20.688414      -1.562136      -0.644942

 Huckel EHT eigenvalues for symmetry :  2
           -0.713627

 Huckel EHT eigenvalues for symmetry :  3
           -0.713627

 Huckel EHT eigenvalues for symmetry :  5
          -20.689792      -1.107218      -0.402498

 Huckel EHT eigenvalues for symmetry :  6
           -0.518773

 Huckel EHT eigenvalues for symmetry :  7
           -0.518773

 **********************************************************************
 *SIRIUS* a direct, restricted step, second order MCSCF program       *
 **********************************************************************

 
     Date and time (Linux)  : Thu Dec 11 13:35:26 2014
     Host name              : rho                                     

 Title lines from ".mol" input file:
     Energy calculation without symmetry                                     
     Basis set specified with ATOMBASIS                                      

 Print level on unit LUPRI =   2 is   0
 Print level on unit LUW4  =   2 is   5

@    Restricted, closed shell Hartree-Fock calculation.

@    Time-dependent Hartree-Fock calculation (random phase approximation).

 Initial molecular orbitals are obtained according to
 ".MOSTART EHT   " input option

     Wave function specification
     ============================
@    Wave function type        >>> HF <<<
@    Number of closed shell electrons          16
@    Number of electrons in active shells       0
@    Total charge of the molecule               0

@    Spin multiplicity and 2 M_S                1         0
@    Total number of symmetries                 8 (point group: D2h)
@    Reference state symmetry                   1 (irrep name : Ag )

     Orbital specifications
     ======================
     Abelian symmetry species          All |    1    2    3    4    5    6    7    8
                                           |  Ag   B3u  B2u  B1g  B1u  B2g  B3g  Au 
                                       --- |  ---  ---  ---  ---  ---  ---  ---  ---
     Total number of orbitals           10 |    3    1    1    0    3    1    1    0
     Number of basis functions          10 |    3    1    1    0    3    1    1    0

      ** Automatic occupation of RHF orbitals **

      -- Initial occupation of symmetries is determined from extended Huckel guess.           
      -- Initial occupation of symmetries is :
@    Occupied SCF orbitals               8 |    3    1    1    0    2    1    0    0

     Maximum number of Fock   iterations      0
     Maximum number of DIIS   iterations     60
     Maximum number of QC-SCF iterations     60
     Threshold for SCF convergence     1.00D-05


 >>>>> DIIS optimization of Hartree-Fock <<<<<

 C1-DIIS algorithm; max error vectors =    2

 Automatic occupation of symmetries with  16 electrons.

 Iter     Total energy    Error norm  Delta(E)    SCF occupation
 -----------------------------------------------------------------------------
     (Precalculated two-electron integrals are transformed to P-supermatrix elements.
      Threshold for discarding integrals :  1.00D-12 )
@  1  -147.485447895       1.43D+00  -1.47D+02     3   1   1   0   2   1   0   0
      Virial theorem: -V/T =      2.011639
@      MULPOP O   _1  0.00; O   _2  0.00; 
 -----------------------------------------------------------------------------
@  2  -147.537818805       1.60D-01  -5.24D-02     3   1   1   0   2   1   0   0
      Virial theorem: -V/T =      2.011671
@      MULPOP O   _1  0.00; O   _2  0.00; 
 -----------------------------------------------------------------------------
@  3  -147.540305228       3.18D-02  -2.49D-03     3   1   1   0   2   1   0   0
      Virial theorem: -V/T =      2.011125
@      MULPOP O   _1  0.00; O   _2  0.00; 
 -----------------------------------------------------------------------------
@  4  -147.540401877       9.98D-04  -9.66D-05     3   1   1   0   2   1   0   0
      Virial theorem: -V/T =      2.010975
@      MULPOP O   _1  0.00; O   _2  0.00; 
 -----------------------------------------------------------------------------
@  5  -147.540401932       3.00D-05  -5.47D-08     3   1   1   0   2   1   0   0
      Virial theorem: -V/T =      2.010971
@      MULPOP O   _1 -0.00; O   _2 -0.00; 
 -----------------------------------------------------------------------------
@  6  -147.540401932       4.42D-06  -7.07D-11     3   1   1   0   2   1   0   0

@ *** DIIS converged in   6 iterations !
@     Converged SCF energy, gradient:   -147.540401931980    4.42D-06
    - total time used in SIRFCK :              0.00 seconds


 *** SCF orbital energy analysis ***

 Number of electrons :   16
 Orbital occupations :    3    1    1    0    2    1    0    0

 Sym       Hartree-Fock orbital energies

1 Ag    -20.40729442    -1.47461834    -0.55165996

2 B3u    -0.59942386

3 B2u    -0.46538308

5 B1u   -20.40800633    -1.01276513     0.60156369

6 B2g    -0.35078370

7 B3g     0.15799483

    E(LUMO) :     0.15799483 au (symmetry 7)
  - E(HOMO) :    -0.35078370 au (symmetry 6)
  ------------------------------------------
    gap     :     0.50877853 au

 Deviation from canonical Hartree-Fock orbitals :
 Largest off-diagonal Fock matrix element is  1.10D-06

 >>> Writing SIRIFC interface file <<<

 >>>> CPU and wall time for SCF :       0.001       0.002


                       .-----------------------------------.
                       | >>> Final results from SIRIUS <<< |
                       `-----------------------------------'


@    Spin multiplicity:           1
@    Spatial symmetry:            1 ( irrep  Ag  in D2h )
@    Total charge of molecule:    0

@    Final HF energy:            -147.540401931980                 
@    Nuclear repulsion:            26.124455913610
@    Electronic energy:          -173.664857845590

@    Final gradient norm:           0.000004415003

 
     Date and time (Linux)  : Thu Dec 11 13:35:26 2014
     Host name              : rho                                     

 Molecular orbitals for symmetry species 1  (Ag )
 ------------------------------------------------

    Orbital         1        2        3
   1 O   :1s     0.7037  -0.1702  -0.0603
   2 O   :1s     0.0128   0.6011   0.2965
   3 O   :2pz    0.0002  -0.1484   0.6226

 Molecular orbitals for symmetry species 2  (B3u)
 ------------------------------------------------

    Orbital         1
   1 O   :2px    0.6677

 Molecular orbitals for symmetry species 3  (B2u)
 ------------------------------------------------

    Orbital         1
   1 O   :2py    0.6677

 Molecular orbitals for symmetry species 5  (B1u)
 ------------------------------------------------

    Orbital         1        2        3
   1 O   :1s     0.7031  -0.1874   0.0821
   2 O   :1s     0.0184   0.7735  -0.4671
   3 O   :2pz   -0.0046   0.1362   0.8951

 Molecular orbitals for symmetry species 6  (B2g)
 ------------------------------------------------

    Orbital         1
   1 O   :2px    0.7545

 Molecular orbitals for symmetry species 7  (B3g)
 ------------------------------------------------

    Orbital         1
   1 O   :2py    0.7545



 >>>> Total CPU  time used in SIRIUS :      0.00 seconds
 >>>> Total wall time used in SIRIUS :      0.00 seconds

 
     Date and time (Linux)  : Thu Dec 11 13:35:26 2014
     Host name              : rho                                     


                     .---------------------------------------.
                     | End of Wave Function Section (SIRIUS) |
                     `---------------------------------------'



                 .------------------------------------------------.
                 | Starting in Dynamic Property Section (RESPONS) |
                 `------------------------------------------------'


 ------------------------------------------------------------------------------
  RESPONSE  -  an MCSCF, MC-srDFT, DFT, and SOPPA response property program
 ------------------------------------------------------------------------------


 <<<<<<<<<< OUTPUT FROM RESPONSE INPUT PROCESSING >>>>>>>>>>




 CHANGES OF DEFAULTS FOR RSPINP:
 -------------------------------


 Default : Using Fock type decoupling of the two-electron density matrix :
    Add DV*(FC+FV) instead of DV*FC to E[2] approximate orbital diagonal



   SCF energy         :     -147.540401931979773
 -- inactive part     :     -173.664857845590120
 -- nuclear repulsion :       26.124455913610333


                     ***************************************
                     *** RHF response calculation (TDHF) ***
                     ***************************************



             Calculation of electronic one-electron expectation values
            ----------------------------------------------------------

 (Note that to get e.g. a dipole moment you must multiply the
  electronic number by -1 and add the nuclear contribution.)

               Column   1     Column   2     Column   3     Column   4     Column   5
       1       2.00000000     0.50716686    -0.05860300     0.00000000     0.00000000
       2       0.50716686     2.46952960    -0.56004071     0.00000000     0.00000000
       3      -0.05860300    -0.56004071     2.56967319     0.00000000     0.00000000
       4       0.00000000     0.00000000     0.00000000     2.24329607     0.00000000
       5       0.00000000     0.00000000     0.00000000     0.00000000     2.24329607

               Column   6     Column   7     Column   8     Column   9     Column  10
       6       2.00000000     0.43964888     0.05860300     0.00000000     0.00000000
       7       0.43964888     1.53047040     0.56004071     0.00000000     0.00000000
       8       0.05860300     0.56004071     1.43032681     0.00000000     0.00000000
       9       0.00000000     0.00000000     0.00000000     1.75670393     0.00000000
      10       0.00000000     0.00000000     0.00000000     0.00000000     1.75670393
    ==== End of matrix output ====

 *** Individual non-zero orbital contributions
 *** to the expectation value for property OVERLAP  :

     Inactive       1  1 in sym 1 :     2.00000000
     Inactive       2  2 in sym 1 :     2.00000000
     Inactive       3  3 in sym 1 :     2.00000000
     Inactive       1  1 in sym 2 :     2.00000000
     Inactive       1  1 in sym 3 :     2.00000000
     Inactive       1  1 in sym 5 :     2.00000000
     Inactive       2  2 in sym 5 :     2.00000000
     Inactive       1  1 in sym 6 :     2.00000000

     OVERLAP  inactive part:    16.00000000
     OVERLAP  active part  :     0.00000000
     OVERLAP  total        :    16.00000000

 >>>> Total CPU  time used in RESPONSE:   0.00 seconds
 >>>> Total wall time used in RESPONSE:   0.00 seconds


                   .-------------------------------------------.
                   | End of Dynamic Property Section (RESPONS) |
                   `-------------------------------------------'

 >>>> Total CPU  time used in DALTON:   0.03 seconds
 >>>> Total wall time used in DALTON:   0.03 seconds

 
     Date and time (Linux)  : Thu Dec 11 13:35:26 2014
     Host name              : rho                                     
