

     ************************************************************************
     *************** Dalton - An Electronic Structure Program ***************
     ************************************************************************

    This is output from DALTON 2014.0
   ----------------------------------------------------------------------------
    NOTE:
     
    Dalton is an experimental code for the evaluation of molecular
    properties using (MC)SCF, DFT, CI, and CC wave functions.
    The authors accept no responsibility for the performance of
    the code or for the correctness of the results.
     
    The code (in whole or part) is provided under a licence and
    is not to be reproduced for further distribution without
    the written permission of the authors or their representatives.
     
    See the home page "http://daltonprogram.org" for further information.
     
    If results obtained with this code are published,
    the appropriate citations would be both of:
     
       K. Aidas, C. Angeli, K. L. Bak, V. Bakken, R. Bast,
       L. Boman, O. Christiansen, R. Cimiraglia, S. Coriani,
       J. Cukras, P. Dahle, E. K. Dalskov, U. Ekstroem,
       T. Enevoldsen, J. J. Eriksen, P. Ettenhuber, B. Fernandez,
       L. Ferrighi, H. Fliegl, L. Frediani, K. Hald, A. Halkier,
       C. Haettig, H. Heiberg, T. Helgaker, A. C. Hennum,
       H. Hettema, E. Hjertenaes, S. Hoest, I.-M. Hoeyvik,
       M. F. Iozzi, B. Jansik, H. J. Aa. Jensen, D. Jonsson,
       P. Joergensen, M. Kaminski, J. Kauczor, S. Kirpekar,
       T. Kjaergaard, W. Klopper, S. Knecht, R. Kobayashi, H. Koch,
       J. Kongsted, A. Krapp, K. Kristensen, A. Ligabue,
       O. B. Lutnaes, J. I. Melo, K. V. Mikkelsen, R. H. Myhre,
       C. Neiss, C. B. Nielsen, P. Norman, J. Olsen,
       J. M. H. Olsen, A. Osted, M. J. Packer, F. Pawlowski,
       T. B. Pedersen, P. F. Provasi, S. Reine, Z. Rinkevicius,
       T. A. Ruden, K. Ruud, V. Rybkin, P. Salek, C. C. M. Samson,
       A. Sanchez de Meras, T. Saue, S. P. A. Sauer,
       B. Schimmelpfennig, K. Sneskov, A. H. Steindal,
       K. O. Sylvester-Hvid, P. R. Taylor, A. M. Teale,
       E. I. Tellgren, D. P. Tew, A. J. Thorvaldsen, L. Thoegersen,
       O. Vahtras, M. A. Watson, D. J. D. Wilson, M. Ziolkowski
       and H. Agren,
       "The Dalton quantum chemistry program system",
       WIREs Comput. Mol. Sci. 2013. (doi: 10.1002/wcms.1172)
    
    and
    
       Dalton, a Molecular Electronic Structure Program,
       Release DALTON2014.0 (2014), see http://daltonprogram.org
   ----------------------------------------------------------------------------

    Authors in alphabetical order (major contribution(s) in parenthesis):

  Kestutis Aidas,           Vilnius University,           Lithuania   (QM/MM)
  Celestino Angeli,         University of Ferrara,        Italy       (NEVPT2)
  Keld L. Bak,              UNI-C,                        Denmark     (AOSOPPA, non-adiabatic coupling, magnetic properties)
  Vebjoern Bakken,          University of Oslo,           Norway      (DALTON; geometry optimizer, symmetry detection)
  Radovan Bast,             KTH Stockholm,                Sweden      (DALTON installation and execution frameworks)
  Pablo Baudin,             University of Valencia,       Spain       (Cholesky excitation energies)
  Linus Boman,              NTNU,                         Norway      (Cholesky decomposition and subsystems)
  Ove Christiansen,         Aarhus University,            Denmark     (CC module)
  Renzo Cimiraglia,         University of Ferrara,        Italy       (NEVPT2)
  Sonia Coriani,            University of Trieste,        Italy       (CC module, MCD in RESPONS)
  Janusz Cukras,            University of Trieste,        Italy       (MChD in RESPONS)
  Paal Dahle,               University of Oslo,           Norway      (Parallelization)
  Erik K. Dalskov,          UNI-C,                        Denmark     (SOPPA)
  Thomas Enevoldsen,        Univ. of Southern Denmark,    Denmark     (SOPPA)
  Janus J. Eriksen,         Aarhus University,            Denmark     (Polarizable embedding model, TDA)
  Berta Fernandez,          U. of Santiago de Compostela, Spain       (doublet spin, ESR in RESPONS)
  Lara Ferrighi,            Aarhus University,            Denmark     (PCM Cubic response)
  Heike Fliegl,             University of Oslo,           Norway      (CCSD(R12))
  Luca Frediani,            UiT The Arctic U. of Norway,  Norway      (PCM)
  Bin Gao,                  UiT The Arctic U. of Norway,  Norway      (Gen1Int library)
  Christof Haettig,         Ruhr-University Bochum,       Germany     (CC module)
  Kasper Hald,              Aarhus University,            Denmark     (CC module)
  Asger Halkier,            Aarhus University,            Denmark     (CC module)
  Erik D. Hedegaard,        Univ. of Southern Denmark,    Denmark     (Polarizable embedding model, QM/MM)
  Hanne Heiberg,            University of Oslo,           Norway      (geometry analysis, selected one-electron integrals)
  Trygve Helgaker,          University of Oslo,           Norway      (DALTON; ABACUS, ERI, DFT modules, London, and much more)
  Alf Christian Hennum,     University of Oslo,           Norway      (Parity violation)
  Hinne Hettema,            University of Auckland,       New Zealand (quadratic response in RESPONS; SIRIUS supersymmetry)
  Eirik Hjertenaes,         NTNU,                         Norway      (Cholesky decomposition)
  Maria Francesca Iozzi,    University of Oslo,           Norway      (RPA)
  Brano Jansik              Technical Univ. of Ostrava    Czech Rep.  (DFT cubic response)
  Hans Joergen Aa. Jensen,  Univ. of Southern Denmark,    Denmark     (DALTON; SIRIUS, RESPONS, ABACUS modules, London, and much more)
  Dan Jonsson,              UiT The Arctic U. of Norway,  Norway      (cubic response in RESPONS module)
  Poul Joergensen,          Aarhus University,            Denmark     (RESPONS, ABACUS, and CC modules)
  Maciej Kaminski,          University of Warsaw,         Poland      (CPPh in RESPONS)
  Joanna Kauczor,           Linkoeping University,        Sweden      (Complex polarization propagator (CPP) module)
  Sheela Kirpekar,          Univ. of Southern Denmark,    Denmark     (Mass-velocity & Darwin integrals)
  Wim Klopper,              KIT Karlsruhe,                Germany     (R12 code in CC, SIRIUS, and ABACUS modules)
  Stefan Knecht,            ETH Zurich,                   Switzerland (Parallel CI and MCSCF)
  Rika Kobayashi,           Australian National Univ.,    Australia   (DIIS in CC, London in MCSCF)
  Henrik Koch,              NTNU,                         Norway      (CC module, Cholesky decomposition)
  Jacob Kongsted,           Univ. of Southern Denmark,    Denmark     (Polarizable embedding model, QM/MM)
  Andrea Ligabue,           University of Modena,         Italy       (CTOCD, AOSOPPA)
  Nanna H. List             Univ. of Southern Denmark,    Denmark     (Polarizable embedding model)
  Ola B. Lutnaes,           University of Oslo,           Norway      (DFT Hessian)
  Juan I. Melo,             University of Buenos Aires,   Argentina   (LRESC, Relativistic Effects on NMR Shieldings)
  Kurt V. Mikkelsen,        University of Copenhagen,     Denmark     (MC-SCRF and QM/MM)
  Rolf H. Myhre,            NTNU,                         Norway      (Cholesky, subsystems and ECC2)
  Christian Neiss,          Univ. Erlangen-Nuernberg,     Germany     (CCSD(R12))
  Christian B. Nielsen,     University of Copenhagen,     Denmark     (QM/MM)
  Patrick Norman,           Linkoeping University,        Sweden      (Cubic response and complex response in RESPONS)
  Jeppe Olsen,              Aarhus University,            Denmark     (SIRIUS CI/density modules)
  Jogvan Magnus H. Olsen,   Univ. of Southern Denmark,    Denmark     (Polarizable embedding model, QM/MM)
  Anders Osted,             Copenhagen University,        Denmark     (QM/MM)
  Martin J. Packer,         University of Sheffield,      UK          (SOPPA)
  Filip Pawlowski,          Kazimierz Wielki University,  Poland      (CC3)
  Morten N. Pedersen,       Univ. of Southern Denmark,    Denmark     (Polarizable embedding model)
  Thomas B. Pedersen,       University of Oslo,           Norway      (Cholesky decomposition)
  Patricio F. Provasi,      University of Northeastern,   Argentina   (Analysis of coupling constants in localized orbitals)
  Zilvinas Rinkevicius,     KTH Stockholm,                Sweden      (open-shell DFT, ESR)
  Elias Rudberg,            KTH Stockholm,                Sweden      (DFT grid and basis info)
  Torgeir A. Ruden,         University of Oslo,           Norway      (Numerical derivatives in ABACUS)
  Kenneth Ruud,             UiT The Arctic U. of Norway,  Norway      (DALTON; ABACUS magnetic properties and much more)
  Pawel Salek,              KTH Stockholm,                Sweden      (DALTON; DFT code)
  Claire C. M. Samson       University of Karlsruhe       Germany     (Boys localization, r12 integrals in ERI)
  Alfredo Sanchez de Meras, University of Valencia,       Spain       (CC module, Cholesky decomposition)
  Trond Saue,               Paul Sabatier University,     France      (direct Fock matrix construction)
  Stephan P. A. Sauer,      University of Copenhagen,     Denmark     (SOPPA(CCSD), SOPPA prop., AOSOPPA, vibrational g-factors)
  Bernd Schimmelpfennig,    Forschungszentrum Karlsruhe,  Germany     (AMFI module)
  Kristian Sneskov,         Aarhus University,            Denmark     (Polarizable embedding model, QM/MM)
  Arnfinn H. Steindal,      UiT The Arctic U. of Norway,  Norway      (parallel QM/MM, Polarizable embedding model)
  Casper Steinmann,         Univ. of Southern Denmark,    Denmark     (QFIT, Polarizable embedding model)
  K. O. Sylvester-Hvid,     University of Copenhagen,     Denmark     (MC-SCRF)
  Peter R. Taylor,          VLSCI/Univ. of Melbourne,     Australia   (Symmetry handling ABACUS, integral transformation)
  Andrew M. Teale,          University of Nottingham,     England     (DFT-AC, DFT-D)
  David P. Tew,             University of Bristol,        England     (CCSD(R12))
  Olav Vahtras,             KTH Stockholm,                Sweden      (triplet response, spin-orbit, ESR, TDDFT, open-shell DFT)
  David J. Wilson,          La Trobe University,          Australia   (DFT Hessian and DFT magnetizabilities)
  Hans Agren,               KTH Stockholm,                Sweden      (SIRIUS module, RESPONS, MC-SCRF solvation model)
 --------------------------------------------------------------------------------

     Date and time (Linux)  : Thu Dec 11 11:02:32 2014
     Host name              : rho                                     

 * Work memory size             :    64000000 =  488.28 megabytes.

 * Directories for basis set searches:
   1) /home/vahtras/proj/L-edge_splitting/Cystein
   2) /home/vahtras/dev/dalton/git/build/master/basis


Compilation information
-----------------------

 Who compiled             | vahtras
 Host                     | rho
 System                   | Linux-3.13.0-34-generic
 CMake generator          | Unix Makefiles
 Processor                | x86_64
 64-bit integers          | OFF
 MPI                      | ON
 Fortran compiler         | /usr/bin/mpif90
 Fortran compiler version | GNU Fortran (Ubuntu 4.8.2-19ubuntu1) 4.8.2
 C compiler               | /usr/bin/mpicc
 C compiler version       | gcc (Ubuntu 4.8.2-19ubuntu1) 4.8.2
 C++ compiler             | /usr/bin/mpicxx
 C++ compiler version     | unknown
 BLAS                     | /usr/lib/libblas.so
 LAPACK                   | /usr/lib/liblapack.so
 Static linking           | OFF
 Last Git revision        | c9cc0f5119cf73df15aa17b41cfb1a1f90126a9f
 Git branch               | master
 Configuration time       | 2014-12-08 13:23:44.358798

 * Sequential calculation.


   Content of the .dal input file
 ----------------------------------

**DALTON                                          
.RUN WAVE                                         
**INTEGRAL                                        
.SPIN-ORBIT                                       
**WAVE FUNCTION                                   
.HF                                               
.INTERFACE                                        
**END OF                                          


   Content of the .mol file
 ----------------------------

ATOMBASIS                                                                      
HEADER    AMINO ACID                                                           
COMPND    CYSTEINE (CYS or C)                                                  
Atomtypes=5 Units=Angstrom Nosymmetry                                          
Charge=7 Atoms=1 Basis=ano-1 3 2 1                                             
N    1.392   0.899   0.816                                                     
Charge=6 Atoms=3 Basis=ano-1 3 2 1                                             
C    0.232   0.006   1.027                                                     
C    0.415  -1.253   0.215                                                     
C   -1.078   0.721   0.608                                                     
Charge=8 Atoms=2 Basis=ano-1 3 2 1                                             
O    0.220  -2.366   0.676                                                     
O    0.810  -1.089  -1.045                                                     
Charge=1 Atoms=7 Basis=ano-1 2 1                                               
H    2.312   0.398   1.085                                                     
H    1.291   1.803   1.401                                                     
H    0.164  -0.268   2.095                                                     
H   -1.851   1.741  -1.193                                                     
H   -1.931   0.027   0.687                                                     
H   -1.263   1.584   1.268                                                     
H    0.893  -1.938  -1.462                                                     
Charge=16 Atoms=1 Basis=ano-2 4 3 1                                            
S   -0.938   1.322  -1.109                                                     


       *******************************************************************
       *********** Output from DALTON general input processing ***********
       *******************************************************************

 --------------------------------------------------------------------------------
   Overall default print level:    0
   Print level for DALTON.STAT:    1

    HERMIT 1- and 2-electron integral sections will be executed
    "Old" integral transformation used (limited to max 255 basis functions)
    Wave function sections will be executed (SIRIUS module)
 --------------------------------------------------------------------------------


   ****************************************************************************
   *************** Output of molecule and basis set information ***************
   ****************************************************************************


    The two title cards from your ".mol" input:
    ------------------------------------------------------------------------
 1: HEADER    AMINO ACID                                                    
 2: COMPND    CYSTEINE (CYS or C)                                           
    ------------------------------------------------------------------------

  Coordinates are entered in Angstrom and converted to atomic units.
          - Conversion factor : 1 bohr = 0.52917721 A

  Atomic type no.    1
  --------------------
  Nuclear charge:   7.00000
  Number of symmetry independent centers:    1
  Number of basis sets to read;    2
  The basis set is "ano-1 3 2 1" from the basis set library.
  Basis set file used for this atomic type with Z =   7 :
     "/home/vahtras/dev/dalton/git/build/master/basis/ano-1"

  Atomic type no.    2
  --------------------
  Nuclear charge:   6.00000
  Number of symmetry independent centers:    3
  Number of basis sets to read;    2
  The basis set is "ano-1 3 2 1" from the basis set library.
  Basis set file used for this atomic type with Z =   6 :
     "/home/vahtras/dev/dalton/git/build/master/basis/ano-1"

  Atomic type no.    3
  --------------------
  Nuclear charge:   8.00000
  Number of symmetry independent centers:    2
  Number of basis sets to read;    2
  The basis set is "ano-1 3 2 1" from the basis set library.
  Basis set file used for this atomic type with Z =   8 :
     "/home/vahtras/dev/dalton/git/build/master/basis/ano-1"

  Atomic type no.    4
  --------------------
  Nuclear charge:   1.00000
  Number of symmetry independent centers:    7
  Number of basis sets to read;    2
  The basis set is "ano-1 2 1" from the basis set library.
  Basis set file used for this atomic type with Z =   1 :
     "/home/vahtras/dev/dalton/git/build/master/basis/ano-1"

  Atomic type no.    5
  --------------------
  Nuclear charge:  16.00000
  Number of symmetry independent centers:    1
  Number of basis sets to read;    2
  The basis set is "ano-2 4 3 1" from the basis set library.
  Basis set file used for this atomic type with Z =  16 :
     "/home/vahtras/dev/dalton/git/build/master/basis/ano-2"


                         SYMGRP: Point group information
                         -------------------------------

@    Point group: C1 


                                 Isotopic Masses
                                 ---------------

                           N          14.003074
                           C          12.000000
                           C          12.000000
                           C          12.000000
                           O          15.994915
                           O          15.994915
                           H           1.007825
                           H           1.007825
                           H           1.007825
                           H           1.007825
                           H           1.007825
                           H           1.007825
                           H           1.007825
                           S          31.972072

                       Total mass:   121.019751 amu
                       Natural abundance:  91.044 %

 Center-of-mass coordinates (a.u.):    0.006515   -0.052238   -0.059669


  Atoms and basis sets
  --------------------

  Number of atom types :    5
  Total number of atoms:   14

  label    atoms   charge   prim   cont     basis
  ----------------------------------------------------------------------
  N           1    7.0000    61    14      [14s9p4d|3s2p1d]                                   
  C           3    6.0000    61    14      [14s9p4d|3s2p1d]                                   
  O           2    8.0000    61    14      [14s9p4d|3s2p1d]                                   
  H           7    1.0000    20     5      [8s4p|2s1p]                                        
  S           1   16.0000    78    18      [17s12p5d|4s3p1d]                                  
  ----------------------------------------------------------------------
  total:     14   64.0000   584   137
  ----------------------------------------------------------------------
  Spherical harmonic basis used.

  Threshold for neglecting AO integrals:  1.00D-12


   Interatomic separations (in Angstrom):
   --------------------------------------

            N           C           C           C           O           O     
            ------      ------      ------      ------      ------      ------
 N     :    0.000000
 C     :    1.479044    0.000000
 C     :    2.438613    1.509276    0.000000
 C     :    2.485125    1.550125    2.506028    0.000000
 O     :    3.471802    2.397859    1.220375    3.349477    0.000000
 O     :    2.784634    2.413772    1.330609    3.094035    2.222762    0.000000
 H     :    1.081555    2.117411    2.661073    3.438598    3.490479    3.000679
 H     :    1.081500    2.119096    3.393097    2.722450    4.365000    3.818107
 H     :    2.122667    1.104683    2.137201    2.175283    2.533437    3.309223
 H     :    3.906673    3.503928    4.010144    2.209418    4.964841    3.887380
 H     :    3.437929    2.189660    2.713835    1.102491    3.217665    3.429047
 H     :    2.778948    2.187051    3.460211    1.102086    4.260546    4.097832
 H     :    3.672445    3.226636    1.873510    3.903847    2.281920    0.949515
 S     :    3.051795    2.768258    3.195968    1.824525    4.257762    2.978678

            H           H           H           H           H           H     
            ------      ------      ------      ------      ------      ------
 H     :    0.000000
 H     :    1.765311    0.000000
 H     :    2.465271    2.457805    0.000000
 H     :    4.931886    4.074904    4.348247    0.000000
 H     :    4.277744    3.747700    2.541361    2.545309    0.000000
 H     :    3.771036    2.566820    2.479952    2.535136    1.791099    0.000000
 H     :    3.735996    4.727606    3.996572    4.597493    4.056403    4.950325
 S     :    4.028636    3.391151    3.742742    1.008061    2.426662    2.413379

            H           S     
            ------      ------
 H     :    0.000000
 S     :    3.755632    0.000000


  Max    interatomic separation is    4.9648 Angstrom (    9.3822 Bohr)
  between atoms   10 and    5, "H     " and "O     ".

  Min HX interatomic separation is    0.9495 Angstrom (    1.7943 Bohr)

  Min YX interatomic separation is    1.2204 Angstrom (    2.3062 Bohr)


  Bond distances (Angstrom):
  --------------------------

                  atom 1     atom 2       distance
                  ------     ------       --------
  bond distance:  C          N            1.479044
  bond distance:  C          C            1.509276
  bond distance:  C          C            1.550125
  bond distance:  O          C            1.220375
  bond distance:  O          C            1.330609
  bond distance:  H          N            1.081555
  bond distance:  H          N            1.081500
  bond distance:  H          C            1.104683
  bond distance:  H          C            1.102491
  bond distance:  H          C            1.102086
  bond distance:  H          O            0.949515
  bond distance:  S          C            1.824525
  bond distance:  S          H            1.008061


  Bond angles (degrees):
  ----------------------

                  atom 1     atom 2     atom 3         angle
                  ------     ------     ------         -----
  bond angle:     C          N          H            110.608
  bond angle:     C          N          H            110.748
  bond angle:     H          N          H            109.396
  bond angle:     N          C          C            109.378
  bond angle:     N          C          C            110.227
  bond angle:     N          C          H            109.631
  bond angle:     C          C          C            109.987
  bond angle:     C          C          H            108.705
  bond angle:     C          C          H            108.888
  bond angle:     C          C          O            122.559
  bond angle:     C          C          O            116.272
  bond angle:     O          C          O            121.168
  bond angle:     C          C          H            110.129
  bond angle:     C          C          H            109.949
  bond angle:     C          C          S            109.966
  bond angle:     H          C          H            108.671
  bond angle:     H          C          S            109.521
  bond angle:     H          C          S            108.573
  bond angle:     C          O          H            109.367
  bond angle:     C          S          H             98.386




 Principal moments of inertia (u*A**2) and principal axes
 --------------------------------------------------------

   IA     159.865483         -0.417442    0.856079   -0.304746
   IB     318.049776          0.364847    0.465043    0.806611
   IC     357.468167          0.832243    0.225528   -0.506467


 Rotational constants
 --------------------

               A                   B                   C

           3161.2766           1588.9934           1413.7735 MHz
            0.105449            0.053003            0.047158 cm-1


@  Nuclear repulsion energy :  388.927143371028 Hartree


                     .---------------------------------------.
                     | Starting in Integral Section (HERMIT) |
                     `---------------------------------------'



 ***************************************************************************************
 ****************** Output from **INTEGRALS input processing (HERMIT) ******************
 ***************************************************************************************



    *************************************************************************
    ****************** Output from HERMIT input processing ******************
    *************************************************************************


 Default print level:        1

 * Nuclear model: Point charge

 Calculation of one- and two-electron Hamiltonian integrals.

 The following one-electron property integrals are calculated as requested:
          - overlap integrals
          - spatial spin-orbit integrals

 Center of mass  (bohr):      0.006514982366     -0.052238470079     -0.059669283457
 Operator center (bohr):      0.000000000000      0.000000000000      0.000000000000
 Gauge origin    (bohr):      0.000000000000      0.000000000000      0.000000000000
 Dipole origin   (bohr):      0.000000000000      0.000000000000      0.000000000000


     ************************************************************************
     ************************** Output from HERINT **************************
     ************************************************************************

 >>>  Time used in ONEDRV     is   0.45 seconds
 >>>  Time used in HUCKEL     is   0.10 seconds
 >>>  Time used in QUADRUP    is   0.22 seconds
 >>>  Time used in KINENE     is   0.21 seconds
 >>>  Time used in SPNORB     is   0.55 seconds

 Threshold for neglecting two-electron integrals:  1.00D-12
 HERMIT - Number of two-electron integrals written:    44640725 ( 99.9% )
 HERMIT - Megabytes written:                            511.162

 >>>  Time used in TWOINT     is  6 minutes  0 seconds
 >>>  Time used in TWOINT 2-el spin-orbit is 24 minutes 55 seconds

   Two-electron spin-orbit integrals
   =================================
   Spin-orbit 2-electron CPU  time   1495. seconds
   Spin-orbit 2-electron wall time   1500. seconds
 >>>> Total CPU  time used in HERMIT: 30 minutes 57 seconds
 >>>> Total wall time used in HERMIT: 31 minutes  2 seconds


                        .----------------------------------.
                        | End of Integral Section (HERMIT) |
                        `----------------------------------'



                   .--------------------------------------------.
                   | Starting in Wave Function Section (SIRIUS) |
                   `--------------------------------------------'


 *** Output from Huckel module :

     Using EWMO model:          T
     Using EHT  model:          F
     Number of Huckel orbitals each symmetry:   51

 EWMO - Energy Weighted Maximum Overlap - is a Huckel type method,
        which normally is better than Extended Huckel Theory.
 Reference: Linderberg and Ohrn, Propagators in Quantum Chemistry (Wiley, 1973)

 Huckel EWMO eigenvalues for symmetry :  1
          -92.010845     -20.686158     -20.684138     -15.672733     -11.356672
          -11.350633     -11.347041      -9.026912      -6.690841      -6.688672
           -6.688062      -1.975457      -1.711468      -1.480043      -1.459190
           -1.164579      -1.029049      -0.874450      -0.812611      -0.792064
           -0.758613      -0.681320      -0.648939      -0.624566      -0.590776
           -0.553881      -0.542794      -0.506892      -0.460865      -0.438298
           -0.418644      -0.382842      -0.273066      -0.214947      -0.195895
           -0.191259      -0.167253      -0.164865      -0.157524      -0.142153
           -0.133618      -0.125161      -0.122704      -0.113666      -0.110433
           -0.106298      -0.054864      -0.050833      -0.050656      -0.046431
           -0.021606

 **********************************************************************
 *SIRIUS* a direct, restricted step, second order MCSCF program       *
 **********************************************************************

 
     Date and time (Linux)  : Thu Dec 11 11:33:34 2014
     Host name              : rho                                     

 Title lines from ".mol" input file:
     HEADER    AMINO ACID                                                    
     COMPND    CYSTEINE (CYS or C)                                           

 Print level on unit LUPRI =   2 is   0
 Print level on unit LUW4  =   2 is   5

@    Restricted, closed shell Hartree-Fock calculation.

 Initial molecular orbitals are obtained according to
 ".MOSTART EWMO  " input option

     Wave function specification
     ============================
@    Wave function type        >>> HF <<<
@    Number of closed shell electrons          64
@    Number of electrons in active shells       0
@    Total charge of the molecule               0

@    Spin multiplicity and 2 M_S                1         0
@    Total number of symmetries                 1 (point group: C1 )
@    Reference state symmetry                   1 (irrep name : A  )

     Orbital specifications
     ======================
     Abelian symmetry species          All |    1
                                           |  A  
                                       --- |  ---
@    Occupied SCF orbitals              32 |   32
     Secondary orbitals                105 |  105
     Total number of orbitals          137 |  137
     Number of basis functions         137 |  137

     Optimization information
     ========================
@    Number of configurations                 1
@    Number of orbital rotations           3360
     ------------------------------------------
@    Total number of variables             3361

     Maximum number of Fock   iterations      0
     Maximum number of DIIS   iterations     60
     Maximum number of QC-SCF iterations     60
     Threshold for SCF convergence     1.00D-05


 ***********************************************
 ***** DIIS acceleration of SCF iterations *****
 ***********************************************

 C1-DIIS algorithm; max error vectors =    8

 Iter      Total energy        Error norm    Delta(E)  DIIS dim.
 -----------------------------------------------------------------------------
     (Precalculated two-electron integrals are transformed to P-supermatrix elements.
      Threshold for discarding integrals :  1.00D-12 )
 >>>  Time used in FORMSUP    is   3.16 seconds
@  1    -718.021678834        4.46777D+00   -7.18D+02    1
      Virial theorem: -V/T =      1.999272
@      MULPOP N      -0.74; C       0.35; C       1.32; C       0.07; O      -1.14; O      -0.74; H       0.23; H       0.22; H       0.05; H       0.12; 
@             H       0.03; H       0.02; H       0.40; S      -0.19; 
 -----------------------------------------------------------------------------
@  2    -718.945052557        2.87680D+00   -9.23D-01    2
      Virial theorem: -V/T =      1.998614
@      MULPOP N      -0.18; C      -0.15; C      -0.35; C      -0.46; O       0.35; O      -0.09; H       0.12; H       0.12; H       0.03; H      -0.27; 
@             H       0.12; H       0.10; H       0.14; S       0.53; 
 -----------------------------------------------------------------------------
@  3    -719.354815359        7.45240D-01   -4.10D-01    3
      Virial theorem: -V/T =      1.997999
@      MULPOP N      -0.23; C       0.12; C       0.66; C      -0.14; O      -0.55; O      -0.19; H       0.07; H       0.07; H      -0.03; H      -0.28; 
@             H       0.04; H       0.02; H       0.08; S       0.35; 
 -----------------------------------------------------------------------------
@  4    -719.384086329        1.96768D-01   -2.93D-02    4
      Virial theorem: -V/T =      1.998922
@      MULPOP N      -0.23; C       0.11; C       0.55; C      -0.13; O      -0.41; O      -0.22; H       0.07; H       0.08; H      -0.03; H      -0.26; 
@             H       0.05; H       0.02; H       0.10; S       0.31; 
 -----------------------------------------------------------------------------
@  5    -719.386798493        6.15215D-02   -2.71D-03    5
      Virial theorem: -V/T =      1.998817
@      MULPOP N      -0.21; C       0.10; C       0.55; C      -0.15; O      -0.44; O      -0.19; H       0.07; H       0.08; H      -0.02; H      -0.26; 
@             H       0.05; H       0.02; H       0.09; S       0.32; 
 -----------------------------------------------------------------------------
@  6    -719.387090716        1.59089D-02   -2.92D-04    6
      Virial theorem: -V/T =      1.998728
@      MULPOP N      -0.22; C       0.10; C       0.55; C      -0.14; O      -0.44; O      -0.20; H       0.07; H       0.08; H      -0.02; H      -0.26; 
@             H       0.05; H       0.02; H       0.09; S       0.31; 
 -----------------------------------------------------------------------------
@  7    -719.387125617        4.60615D-03   -3.49D-05    7
      Virial theorem: -V/T =      1.998758
@      MULPOP N      -0.22; C       0.10; C       0.55; C      -0.14; O      -0.44; O      -0.20; H       0.07; H       0.08; H      -0.02; H      -0.26; 
@             H       0.05; H       0.02; H       0.09; S       0.31; 
 -----------------------------------------------------------------------------
@  8    -719.387128624        1.91621D-03   -3.01D-06    8
      Virial theorem: -V/T =      1.998749
@      MULPOP N      -0.22; C       0.10; C       0.55; C      -0.14; O      -0.44; O      -0.20; H       0.08; H       0.08; H      -0.02; H      -0.26; 
@             H       0.05; H       0.02; H       0.09; S       0.31; 
 -----------------------------------------------------------------------------
@  9    -719.387129182        6.41502D-04   -5.58D-07    8
      Virial theorem: -V/T =      1.998753
@      MULPOP N      -0.22; C       0.10; C       0.55; C      -0.14; O      -0.44; O      -0.20; H       0.08; H       0.08; H      -0.02; H      -0.26; 
@             H       0.05; H       0.02; H       0.09; S       0.31; 
 -----------------------------------------------------------------------------
@ 10    -719.387129261        2.50329D-04   -7.88D-08    8
      Virial theorem: -V/T =      1.998752
@      MULPOP N      -0.22; C       0.10; C       0.55; C      -0.14; O      -0.44; O      -0.20; H       0.08; H       0.08; H      -0.02; H      -0.26; 
@             H       0.05; H       0.02; H       0.09; S       0.31; 
 -----------------------------------------------------------------------------
@ 11    -719.387129274        1.01518D-04   -1.35D-08    8
      Virial theorem: -V/T =      1.998752
@      MULPOP N      -0.22; C       0.10; C       0.55; C      -0.14; O      -0.44; O      -0.20; H       0.08; H       0.08; H      -0.02; H      -0.26; 
@             H       0.05; H       0.02; H       0.09; S       0.31; 
 -----------------------------------------------------------------------------
@ 12    -719.387129277        3.97088D-05   -2.87D-09    8
      Virial theorem: -V/T =      1.998752
@      MULPOP N      -0.22; C       0.10; C       0.55; C      -0.14; O      -0.44; O      -0.20; H       0.08; H       0.08; H      -0.02; H      -0.26; 
@             H       0.05; H       0.02; H       0.09; S       0.31; 
 -----------------------------------------------------------------------------
@ 13    -719.387129277        1.51490D-05   -4.40D-10    8
      Virial theorem: -V/T =      1.998752
@      MULPOP N      -0.22; C       0.10; C       0.55; C      -0.14; O      -0.44; O      -0.20; H       0.08; H       0.08; H      -0.02; H      -0.26; 
@             H       0.05; H       0.02; H       0.09; S       0.31; 
 -----------------------------------------------------------------------------
@ 14    -719.387129277        7.16182D-06   -3.55D-11    8

@ *** DIIS converged in  14 iterations !
@     Converged SCF energy, gradient:   -719.387129277491    7.16D-06
    - total time used in SIRFCK :              0.00 seconds


 *** SCF orbital energy analysis ***

 Only the five lowest virtual orbital energies printed in each symmetry.

 Number of electrons :   64
 Orbital occupations :   32

 Sym       Hartree-Fock orbital energies

1 A     -91.92043835   -20.60453173   -20.54589646   -15.57120382   -11.39829551
        -11.30400399   -11.28445779    -8.94139200    -6.62621811    -6.61992446
         -6.61689656    -1.48111319    -1.36514672    -1.20079022    -1.08000221
         -0.99239055    -0.90398887    -0.81811166    -0.71731297    -0.70115924
         -0.67355166    -0.65551360    -0.63457647    -0.60134332    -0.58183275
         -0.56747678    -0.54429195    -0.48325842    -0.46319106    -0.45816798
         -0.41458540    -0.35691894     0.08490357     0.11821749     0.12398223
          0.13919051     0.17008224

    E(LUMO) :     0.08490357 au (symmetry 1)
  - E(HOMO) :    -0.35691894 au (symmetry 1)
  ------------------------------------------
    gap     :     0.44182251 au

 >>> Writing SIRIFC interface file

 >>>> CPU and wall time for SCF :       5.562      10.610


                       .-----------------------------------.
                       | >>> Final results from SIRIUS <<< |
                       `-----------------------------------'


@    Spin multiplicity:           1
@    Spatial symmetry:            1 ( irrep  A   in C1  )
@    Total charge of molecule:    0

@    Final HF energy:            -719.387129277491                 
@    Nuclear repulsion:           388.927143371028
@    Electronic energy:         -1108.314272648519

@    Final gradient norm:           0.000007161819

 
     Date and time (Linux)  : Thu Dec 11 11:33:45 2014
     Host name              : rho                                     

 (Only coefficients >0.0100 are printed.)

 Molecular orbitals for symmetry species 1  (A  )
 ------------------------------------------------

    Orbital        28       29       30       31       32       33       34
   1 N   :1s     0.0016  -0.0048  -0.0022  -0.0193  -0.0034   0.0773  -0.0441
   2 N   :1s     0.0154  -0.1114   0.0061  -0.3005  -0.0583   0.6510  -0.3562
   3 N   :1s     0.0054  -0.0116  -0.0067  -0.0480  -0.0065   0.2881  -0.1530
   4 N   :2px    0.0630   0.0658  -0.0098  -0.0362  -0.0185   0.1435  -0.2548
   5 N   :2py    0.0301  -0.0125  -0.1450  -0.2039  -0.0655   0.1426   0.2375
   6 N   :2pz   -0.0662   0.2408   0.0293   0.7714   0.1689   0.1120  -0.0704
   7 N   :2px    0.0025   0.0030   0.0118   0.0039  -0.0006   0.0569  -0.1761
   8 N   :2py   -0.0157  -0.0089  -0.0025  -0.0112  -0.0090   0.0882   0.1607
   9 N   :2pz   -0.0123   0.0073   0.0011   0.0580   0.0217   0.0149  -0.0379
  12 N   :3d0   -0.0017   0.0041  -0.0019   0.0117   0.0029  -0.0008   0.0041
  15 C   :1s    -0.0005   0.0004   0.0062   0.0040   0.0007   0.0501  -0.0075
  16 C   :1s     0.0122   0.0578  -0.0385   0.0357   0.0077   0.3631  -0.0838
  17 C   :1s     0.0007   0.0001   0.0093   0.0061   0.0009   0.1551  -0.0172
  18 C   :2px   -0.0980  -0.0499  -0.0724   0.0284  -0.0011   0.0198   0.2147
  19 C   :2py    0.0096  -0.0360   0.3091   0.0794   0.0037  -0.1878  -0.0872
  20 C   :2pz   -0.0659  -0.0021   0.0522  -0.1930  -0.0259   0.3214   0.0330
  21 C   :2px    0.0004  -0.0061   0.0152  -0.0270  -0.0083   0.0425   0.1354
  22 C   :2py    0.0009  -0.0229  -0.0073  -0.0346  -0.0195  -0.0725  -0.1167
  23 C   :2pz    0.0159   0.0249  -0.0115   0.0382   0.0004   0.1811  -0.0109
  24 C   :3d2-  -0.0182  -0.0076   0.0035  -0.0014   0.0058   0.0088  -0.0145
  25 C   :3d1-   0.0004   0.0034  -0.0192   0.0373   0.0031  -0.0067   0.0109
  26 C   :3d0   -0.0075   0.0022  -0.0089  -0.0345  -0.0068   0.0075  -0.0004
  27 C   :3d1+  -0.0024   0.0213   0.0079   0.0287   0.0085  -0.0016  -0.0128
  28 C   :3d2+   0.0035  -0.0047   0.0191   0.0095   0.0078   0.0004  -0.0087
  29 C   :1s     0.0004   0.0027  -0.0020   0.0015   0.0002   0.0261  -0.0447
  30 C   :1s     0.0090   0.0163  -0.1004   0.0671  -0.0047   0.1618  -0.2344
  31 C   :1s     0.0013   0.0067  -0.0097   0.0004  -0.0000   0.0953  -0.1372
  32 C   :2px    0.2182   0.0182   0.0341   0.0019  -0.0004  -0.0237   0.2196
  33 C   :2py   -0.0001   0.0029  -0.1446   0.0622  -0.0108   0.1123  -0.1520
  34 C   :2pz    0.0736   0.0054  -0.0865   0.0168  -0.0202  -0.0667   0.1421
  35 C   :2px   -0.0263   0.0065  -0.0080   0.0118   0.0009  -0.0189   0.0635
  36 C   :2py    0.0014   0.0018   0.0207  -0.0146  -0.0005   0.1004  -0.1485
  37 C   :2pz   -0.0127  -0.0249   0.0166  -0.0277  -0.0136  -0.0892   0.1016
  38 C   :3d2-  -0.0639  -0.0114   0.0075  -0.0013  -0.0021  -0.0030   0.0164
  39 C   :3d1-  -0.0158   0.0044  -0.0693   0.0006  -0.0037   0.0112  -0.0051
  40 C   :3d0    0.0181  -0.0150   0.0659  -0.0155   0.0022   0.0179  -0.0118
  41 C   :3d1+   0.0494   0.0139  -0.0249   0.0025   0.0032  -0.0172   0.0172
  42 C   :3d2+  -0.0282  -0.0160   0.0404  -0.0056  -0.0014  -0.0068   0.0247
  43 C   :1s    -0.0044   0.0038  -0.0003  -0.0019   0.0006   0.0911   0.1173
  44 C   :1s    -0.0019   0.0976   0.0592   0.0274   0.0157   0.6603   0.8487
  45 C   :1s    -0.0113   0.0110   0.0013  -0.0048   0.0010   0.2491   0.3195
  46 C   :2px    0.0644   0.1758   0.1346   0.0752  -0.0274  -0.1577  -0.0068
  47 C   :2py   -0.0672   0.0861  -0.1140  -0.0350  -0.1148   0.1342  -0.0019
  48 C   :2pz    0.1199  -0.3296  -0.0701   0.1150  -0.0380   0.2309   0.2181
  49 C   :2px   -0.0015  -0.0045  -0.0200  -0.0036   0.0125  -0.0409   0.0665
  50 C   :2py    0.0102   0.0026  -0.0020   0.0056   0.0333   0.0699  -0.0440
  51 C   :2pz   -0.0105   0.0145  -0.0050  -0.0214   0.0099   0.1325   0.1043
  52 C   :3d2-  -0.0062  -0.0170  -0.0017  -0.0061   0.0154  -0.0007   0.0161
  53 C   :3d1-   0.0057  -0.0203  -0.0112   0.0188  -0.0297   0.0146   0.0101
  54 C   :3d0   -0.0101   0.0223   0.0024  -0.0087  -0.0227  -0.0099  -0.0108
  56 C   :3d2+   0.0041   0.0029   0.0136   0.0055   0.0000  -0.0134  -0.0021
  57 O   :1s     0.0001  -0.0006  -0.0013   0.0009   0.0002   0.0189  -0.0189
  58 O   :1s     0.0022  -0.0004  -0.0019   0.0119   0.0036   0.1694  -0.1732
  59 O   :1s     0.0009  -0.0007  -0.0068   0.0030   0.0003   0.0759  -0.0749
  60 O   :2px    0.6804   0.1409  -0.1168  -0.0186   0.0402   0.0197  -0.2309
  61 O   :2py   -0.0613  -0.0700   0.3694  -0.0027   0.0059  -0.0451   0.0580
  62 O   :2pz    0.1312  -0.1641   0.7225   0.0057   0.0064  -0.0145  -0.0116
  63 O   :2px    0.0243   0.0047  -0.0080  -0.0038   0.0043   0.0092  -0.0671
  64 O   :2py   -0.0024  -0.0052   0.0147   0.0012   0.0007  -0.0059   0.0121
  65 O   :2pz    0.0050  -0.0062   0.0416   0.0050   0.0019  -0.0017  -0.0067
  66 O   :3d2-   0.0267   0.0041   0.0005  -0.0010   0.0012   0.0008   0.0004
  67 O   :3d1-   0.0074  -0.0025   0.0109   0.0009  -0.0001   0.0010   0.0003
  68 O   :3d0   -0.0050   0.0021  -0.0130  -0.0012  -0.0005   0.0000  -0.0017
  69 O   :3d1+  -0.0107  -0.0024   0.0035   0.0011  -0.0004  -0.0012   0.0022
  71 O   :1s    -0.0004   0.0045  -0.0030  -0.0014   0.0023   0.0232  -0.0531
  72 O   :1s    -0.0132   0.0575   0.0323  -0.0194   0.0421   0.2274  -0.4182
  73 O   :1s    -0.0012   0.0101  -0.0113  -0.0047   0.0034   0.0827  -0.1916
  74 O   :2px   -0.5129  -0.0323  -0.1190   0.0960  -0.0610   0.0345  -0.2028
  75 O   :2py    0.0369   0.1305  -0.1440   0.0006   0.0487  -0.0767   0.3243
  76 O   :2pz   -0.1904  -0.1143   0.2376  -0.0247  -0.0341  -0.0601   0.1625
  77 O   :2px   -0.0315   0.0015  -0.0044   0.0104  -0.0035   0.0214  -0.0846
  78 O   :2py    0.0052   0.0080  -0.0139   0.0028   0.0066  -0.0346   0.2116
  79 O   :2pz   -0.0090  -0.0106   0.0062  -0.0023  -0.0086  -0.0515   0.1330
  81 O   :3d1-   0.0043   0.0038  -0.0101   0.0012   0.0008   0.0020  -0.0091
  82 O   :3d0   -0.0027  -0.0001   0.0024   0.0006   0.0006  -0.0024   0.0116
  84 O   :3d2+   0.0019   0.0036  -0.0003  -0.0002   0.0014  -0.0054   0.0159
  85 H   :1s     0.0197   0.0558   0.0539   0.1147   0.0265  -0.3813   0.5695
  86 H   :1s    -0.0031  -0.0067  -0.0087  -0.0020   0.0003  -0.3078   0.4860
  87 H   :2px    0.0009  -0.0039  -0.0051  -0.0135  -0.0024   0.0082  -0.0233
  89 H   :2pz   -0.0014   0.0075   0.0002   0.0242   0.0055   0.0049  -0.0096
  90 H   :1s     0.0262   0.0725  -0.0995   0.1130   0.0055  -0.4315  -0.0550
  91 H   :1s     0.0143   0.0074   0.0030  -0.0003  -0.0020  -0.3606  -0.0708
  93 H   :2py   -0.0009  -0.0078   0.0024  -0.0189  -0.0028   0.0106   0.0055
  94 H   :2pz   -0.0030   0.0044   0.0051   0.0207   0.0045   0.0084   0.0055
  95 H   :1s    -0.0670  -0.0207  -0.0427  -0.3237  -0.0488  -0.4616  -0.0785
  96 H   :1s    -0.0048  -0.0153  -0.0135  -0.0350  -0.0073  -0.3763  -0.0541
  98 H   :2py   -0.0011   0.0005   0.0025  -0.0025   0.0006  -0.0109   0.0039
  99 H   :2pz    0.0032  -0.0002   0.0052   0.0135   0.0017   0.0158   0.0044
 100 H   :1s     0.0226   0.1895   0.0673  -0.0144   0.0004  -0.3959  -0.8449
 101 H   :1s    -0.0115   0.0011   0.0017   0.0198   0.0011  -0.3022  -0.6937
 102 H   :2px    0.0017   0.0082   0.0036  -0.0022   0.0148  -0.0295  -0.0581
 103 H   :2py   -0.0020  -0.0117  -0.0045  -0.0035   0.0347   0.0157   0.0301
 104 H   :2pz   -0.0039   0.0154   0.0025  -0.0087   0.0130  -0.0083  -0.0103
 105 H   :1s     0.0303  -0.1350  -0.0274  -0.0024   0.1975  -0.2633  -0.2190
 106 H   :1s     0.0166   0.0256  -0.0085   0.0025   0.0352  -0.2117  -0.2247
 107 H   :2px    0.0038  -0.0049   0.0018   0.0017   0.0079  -0.0081  -0.0156
 110 H   :1s     0.0130  -0.1090  -0.0981   0.0795  -0.2002  -0.4651  -0.5081
 111 H   :1s    -0.0050   0.0094   0.0183   0.0095  -0.0339  -0.4049  -0.4265
 112 H   :2px    0.0013   0.0026   0.0024   0.0035  -0.0038  -0.0109  -0.0030
 113 H   :2py   -0.0028   0.0096   0.0033  -0.0049   0.0050   0.0170   0.0122
 114 H   :2pz    0.0022  -0.0032   0.0025   0.0013   0.0032   0.0108   0.0105
 115 H   :1s     0.0088  -0.0378  -0.0057   0.0125  -0.0167  -0.3391   0.9614
 116 H   :1s    -0.0007  -0.0040   0.0157  -0.0037   0.0009  -0.2658   0.7464
 117 H   :2px   -0.0205  -0.0020  -0.0041   0.0035  -0.0029   0.0001  -0.0093
 118 H   :2py    0.0018  -0.0011   0.0012   0.0017   0.0008  -0.0145   0.0579
 119 H   :2pz   -0.0067  -0.0057   0.0075  -0.0002  -0.0015  -0.0007   0.0177
 120 S   :1s     0.0002  -0.0079  -0.0022   0.0019   0.0000   0.0179   0.0248
 121 S   :1s     0.0016  -0.0650  -0.0177   0.0159   0.0003   0.1397   0.1911
 122 S   :1s     0.0035  -0.4976  -0.1173   0.1410   0.0040   0.5976   0.7044
 123 S   :1s    -0.0015  -0.1071  -0.0312   0.0266  -0.0012   0.3078   0.3652
 124 S   :2px    0.0006   0.0142   0.0044  -0.0007  -0.0003  -0.0137  -0.0393
 125 S   :2py   -0.0009  -0.0010  -0.0003   0.0002  -0.0006   0.0045   0.0181
 126 S   :2pz    0.0042  -0.0113  -0.0017   0.0040  -0.0002   0.0011  -0.0043
 127 S   :2px   -0.0091  -0.4070  -0.1051   0.0992   0.3573  -0.0950  -0.4230
 128 S   :2py    0.0185  -0.0385  -0.0250  -0.0962   0.8330   0.0419   0.2212
 129 S   :2pz   -0.1418   0.4637   0.0619  -0.2484   0.3058  -0.0236  -0.0882
 130 S   :2px   -0.0043   0.0359   0.0115   0.0146   0.0118  -0.0188  -0.1899
 131 S   :2py    0.0057   0.0036   0.0027  -0.0016   0.0277  -0.0085   0.0708
 132 S   :2pz    0.0111  -0.0337  -0.0080   0.0069   0.0085   0.0322  -0.0295
 133 S   :3d2-  -0.0088  -0.0225  -0.0066   0.0062  -0.0176  -0.0182  -0.0476
 134 S   :3d1-   0.0068  -0.0300  -0.0105   0.0065   0.0047  -0.0096  -0.0043
 135 S   :3d0   -0.0207   0.0286   0.0005  -0.0101   0.0015   0.0062  -0.0207
 136 S   :3d1+   0.0099  -0.0139   0.0047   0.0086  -0.0071  -0.0099   0.0031
 137 S   :3d2+   0.0043   0.0204   0.0055  -0.0113  -0.0171   0.0192   0.0499



 >>>> Total CPU  time used in SIRIUS :      5.86 seconds
 >>>> Total wall time used in SIRIUS :     10.91 seconds

 
     Date and time (Linux)  : Thu Dec 11 11:33:45 2014
     Host name              : rho                                     


                     .---------------------------------------.
                     | End of Wave Function Section (SIRIUS) |
                     `---------------------------------------'

 >>>> Total CPU  time used in DALTON: 31 minutes  3 seconds
 >>>> Total wall time used in DALTON: 31 minutes 13 seconds

 
     Date and time (Linux)  : Thu Dec 11 11:33:45 2014
     Host name              : rho                                     
